Jobname.Temp
SP        R                             def2-TZVP           
Number of atoms                            I                2
Charge                                     I                0
Multiplicity                               I                1
Number of electrons                        I               48
Number of alpha electrons                  I               24
Number of beta electrons                   I               24
Atomic numbers                             I   N=           2
          24          24
Current cartesian coordinates              R   N=           6
  0.00000000E+00  0.00000000E+00 -1.58736994E+00  0.00000000E+00  0.00000000E+00
  1.58736994E+00
Nuclear charges                            R   N=           2
  2.40000000E+01  2.40000000E+01
Number of basis functions                  I               90
Number of contracted shells                I               30
Number of primitive shells                 I               72
Highest angular momentum                   I                3
Largest degree of contraction              I                8
Shell types                                I   N=          30
           0           0           0           0           0           0
           1           1           1           1          -2          -2
          -2          -2          -3           0           0           0
           0           0           0           1           1           1
           1          -2          -2          -2          -2          -3
Number of primitives per shell             I   N=          30
           8           4           2           1           1           1
           6           3           1           1           4           1
           1           1           1           8           4           2
           1           1           1           6           3           1
           1           4           1           1           1           1
Shell to atom map                          I   N=          30
           1           1           1           1           1           1
           1           1           1           1           1           1
           1           1           1           2           2           2
           2           2           2           2           2           2
           2           2           2           2           2           2
Primitive exponents                        R   N=          72
  2.54477807E+05  3.81317971E+04  8.67529306E+03  2.45500998E+03  7.99162178E+02
  2.86900215E+02  1.11254132E+02  4.38641526E+01  2.79326692E+02  8.62747324E+01
  1.35557561E+01  5.69781128E+00  8.56365826E+00  1.39882968E+00  5.72881711E-01
  9.00961713E-02  3.41258851E-02  1.30643989E+03  3.09253114E+02  9.89962740E+01
  3.67569165E+01  1.45666571E+01  5.87399374E+00  2.28909997E+01  3.08550018E+00
  1.21323291E+00  4.49316807E-01  1.20675000E-01  4.37200745E+01  1.23912427E+01
  4.26394420E+00  1.55252218E+00  5.37619295E-01  1.64931731E-01  5.10000000E-02
  1.14700000E+00  2.54477807E+05  3.81317971E+04  8.67529306E+03  2.45500998E+03
  7.99162178E+02  2.86900215E+02  1.11254132E+02  4.38641526E+01  2.79326692E+02
  8.62747324E+01  1.35557561E+01  5.69781128E+00  8.56365826E+00  1.39882968E+00
  5.72881711E-01  9.00961713E-02  3.41258851E-02  1.30643989E+03  3.09253114E+02
  9.89962740E+01  3.67569165E+01  1.45666571E+01  5.87399374E+00  2.28909997E+01
  3.08550018E+00  1.21323291E+00  4.49316807E-01  1.20675000E-01  4.37200745E+01
  1.23912427E+01  4.26394420E+00  1.55252218E+00  5.37619295E-01  1.64931731E-01
  5.10000000E-02  1.14700000E+00
Contraction coefficients                   R   N=          72
  2.42904776E-04  1.88435236E-03  9.80095844E-03  3.98250087E-02  1.29405437E-01
  3.06290018E-01  4.34628350E-01  2.24695629E-01 -2.43633579E-02 -1.15114954E-01
  5.50922663E-01  5.36113547E-01 -3.71230177E-01  1.16811695E+00  1.00000000E+00
  1.00000000E+00  1.00000000E+00  2.82928007E-03  2.27766292E-02  1.05645619E-01
  2.99499449E-01  4.77062454E-01  2.76542344E-01 -1.94121061E-02  3.86188758E-01
  6.76239089E-01  1.00000000E+00  1.00000000E+00  2.20932593E-02  1.28014388E-01
  3.86529103E-01  6.41033014E-01  1.00000000E+00  1.00000000E+00  1.00000000E+00
  1.00000000E+00  2.42904776E-04  1.88435236E-03  9.80095844E-03  3.98250087E-02
  1.29405437E-01  3.06290018E-01  4.34628350E-01  2.24695629E-01 -2.43633579E-02
 -1.15114954E-01  5.50922663E-01  5.36113547E-01 -3.71230177E-01  1.16811695E+00
  1.00000000E+00  1.00000000E+00  1.00000000E+00  2.82928007E-03  2.27766292E-02
  1.05645619E-01  2.99499449E-01  4.77062454E-01  2.76542344E-01 -1.94121061E-02
  3.86188758E-01  6.76239089E-01  1.00000000E+00  1.00000000E+00  2.20932593E-02
  1.28014388E-01  3.86529103E-01  6.41033014E-01  1.00000000E+00  1.00000000E+00
  1.00000000E+00  1.00000000E+00
Coordinates of each shell                  R   N=          90
  0.00000000E+00  0.00000000E+00 -1.58736994E+00  0.00000000E+00  0.00000000E+00
 -1.58736994E+00  0.00000000E+00  0.00000000E+00 -1.58736994E+00  0.00000000E+00
  0.00000000E+00 -1.58736994E+00  0.00000000E+00  0.00000000E+00 -1.58736994E+00
  0.00000000E+00  0.00000000E+00 -1.58736994E+00  0.00000000E+00  0.00000000E+00
 -1.58736994E+00  0.00000000E+00  0.00000000E+00 -1.58736994E+00  0.00000000E+00
  0.00000000E+00 -1.58736994E+00  0.00000000E+00  0.00000000E+00 -1.58736994E+00
  0.00000000E+00  0.00000000E+00 -1.58736994E+00  0.00000000E+00  0.00000000E+00
 -1.58736994E+00  0.00000000E+00  0.00000000E+00 -1.58736994E+00  0.00000000E+00
  0.00000000E+00 -1.58736994E+00  0.00000000E+00  0.00000000E+00 -1.58736994E+00
  0.00000000E+00  0.00000000E+00  1.58736994E+00  0.00000000E+00  0.00000000E+00
  1.58736994E+00  0.00000000E+00  0.00000000E+00  1.58736994E+00  0.00000000E+00
  0.00000000E+00  1.58736994E+00  0.00000000E+00  0.00000000E+00  1.58736994E+00
  0.00000000E+00  0.00000000E+00  1.58736994E+00  0.00000000E+00  0.00000000E+00
  1.58736994E+00  0.00000000E+00  0.00000000E+00  1.58736994E+00  0.00000000E+00
  0.00000000E+00  1.58736994E+00  0.00000000E+00  0.00000000E+00  1.58736994E+00
  0.00000000E+00  0.00000000E+00  1.58736994E+00  0.00000000E+00  0.00000000E+00
  1.58736994E+00  0.00000000E+00  0.00000000E+00  1.58736994E+00  0.00000000E+00
  0.00000000E+00  1.58736994E+00  0.00000000E+00  0.00000000E+00  1.58736994E+00
Overlap Matrix                             R   N=        4095
  1.00000000E+00  2.95567446E-01  1.00000000E+00 -1.08264241E-02  3.42793096E-01
  1.00000000E+00  5.75239087E-02  3.62845396E-01  8.85407027E-01  1.00000000E+00
  1.45087883E-02  9.99027138E-02  3.50703137E-01  5.67381150E-01  1.00000000E+00
  7.01320333E-03  4.88093048E-02  1.80152049E-01  3.12691061E-01  8.43508798E-01
  1.00000000E+00  0.00000000E+00  0.00000000E+00  0.00000000E+00  0.00000000E+00
  0.00000000E+00  0.00000000E+00  1.00000000E+00  0.00000000E+00  0.00000000E+00
  0.00000000E+00  0.00000000E+00  0.00000000E+00  0.00000000E+00  0.00000000E+00
  1.00000000E+00 -4.71183094E-17 -7.01294838E-16  5.97240144E-16 -2.45547183E-16
 -4.77190482E-17 -2.81483611E-17  0.00000000E+00  0.00000000E+00  1.00000000E+00
  0.00000000E+00  0.00000000E+00  0.00000000E+00  0.00000000E+00  0.00000000E+00
  0.00000000E+00  3.70871957E-01  0.00000000E+00  0.00000000E+00  1.00000000E+00
  0.00000000E+00  0.00000000E+00  0.00000000E+00  0.00000000E+00  0.00000000E+00
  0.00000000E+00  0.00000000E+00  3.70871957E-01  0.00000000E+00  0.00000000E+00
  1.00000000E+00 -3.77940037E-17 -9.75560169E-17 -1.15579175E-15  0.00000000E+00
  1.19534794E-16 -9.02257911E-17  0.00000000E+00  0.00000000E+00  3.70871957E-01
  0.00000000E+00  0.00000000E+00  1.00000000E+00  0.00000000E+00  0.00000000E+00
  0.00000000E+00  0.00000000E+00  0.00000000E+00  0.00000000E+00  9.20873283E-02
  0.00000000E+00  0.00000000E+00  6.41886254E-01  0.00000000E+00  0.00000000E+00
  1.00000000E+00  0.00000000E+00  0.00000000E+00  0.00000000E+00  0.00000000E+00
  0.00000000E+00  0.00000000E+00  0.00000000E+00  9.20873283E-02  0.00000000E+00
  0.00000000E+00  6.41886254E-01  0.00000000E+00  0.00000000E+00  1.00000000E+00
 -5.48248566E-18 -5.99425864E-17  0.00000000E+00  0.00000000E+00  0.00000000E+00
  0.00000000E+00  0.00000000E+00  0.00000000E+00  9.20873283E-02  0.00000000E+00
  0.00000000E+00  6.41886254E-01  0.00000000E+00  0.00000000E+00  1.00000000E+00
  0.00000000E+00  0.00000000E+00  0.00000000E+00  0.00000000E+00  0.00000000E+00
  0.00000000E+00  1.96347395E-02  0.00000000E+00  0.00000000E+00  2.02949692E-01
  0.00000000E+00  0.00000000E+00  6.03414748E-01  0.00000000E+00  0.00000000E+00
  1.00000000E+00  0.00000000E+00  0.00000000E+00  0.00000000E+00  0.00000000E+00
  0.00000000E+00  0.00000000E+00  0.00000000E+00  1.96347395E-02  0.00000000E+00
  0.00000000E+00  2.02949692E-01  0.00000000E+00  0.00000000E+00  6.03414748E-01
  0.00000000E+00  0.00000000E+00  1.00000000E+00 -2.30454627E-18  1.25851865E-17
 -6.48738834E-18  0.00000000E+00  0.00000000E+00  0.00000000E+00  0.00000000E+00
  0.00000000E+00  1.96347395E-02  0.00000000E+00  0.00000000E+00  2.02949692E-01
  0.00000000E+00  0.00000000E+00  6.03414748E-01  0.00000000E+00  0.00000000E+00
  1.00000000E+00  0.00000000E+00  0.00000000E+00  0.00000000E+00  0.00000000E+00
  0.00000000E+00  0.00000000E+00  0.00000000E+00  0.00000000E+00 -1.44926284E-16
  0.00000000E+00  0.00000000E+00 -2.49694587E-17  0.00000000E+00  0.00000000E+00
  1.68524422E-16  0.00000000E+00  0.00000000E+00  2.84353247E-17  1.00000000E+00
  0.00000000E+00  0.00000000E+00  0.00000000E+00  0.00000000E+00  0.00000000E+00
  0.00000000E+00 -1.25509844E-16  0.00000000E+00  0.00000000E+00 -2.16241856E-17
  0.00000000E+00  0.00000000E+00  1.45946431E-16  0.00000000E+00  0.00000000E+00
  2.46257135E-17  0.00000000E+00  0.00000000E+00  0.00000000E+00  1.00000000E+00
  0.00000000E+00  0.00000000E+00  0.00000000E+00  0.00000000E+00  0.00000000E+00
  0.00000000E+00  0.00000000E+00 -1.25509844E-16  0.00000000E+00  0.00000000E+00
 -2.16241856E-17  0.00000000E+00  0.00000000E+00  1.45946431E-16  0.00000000E+00
  0.00000000E+00  2.46257135E-17  0.00000000E+00  0.00000000E+00  0.00000000E+00
  1.00000000E+00  0.00000000E+00  0.00000000E+00  0.00000000E+00  0.00000000E+00
  0.00000000E+00  0.00000000E+00  0.00000000E+00  0.00000000E+00  0.00000000E+00
  0.00000000E+00  0.00000000E+00  0.00000000E+00  0.00000000E+00  0.00000000E+00
  0.00000000E+00  0.00000000E+00  0.00000000E+00  0.00000000E+00  0.00000000E+00
  0.00000000E+00  0.00000000E+00  1.00000000E+00  0.00000000E+00  0.00000000E+00
  0.00000000E+00  0.00000000E+00  0.00000000E+00  0.00000000E+00  0.00000000E+00
  0.00000000E+00  0.00000000E+00  0.00000000E+00  0.00000000E+00  0.00000000E+00
  0.00000000E+00  0.00000000E+00  0.00000000E+00  0.00000000E+00  0.00000000E+00
  0.00000000E+00  0.00000000E+00  0.00000000E+00  0.00000000E+00  0.00000000E+00
  1.00000000E+00  0.00000000E+00  0.00000000E+00  0.00000000E+00  0.00000000E+00
  0.00000000E+00  0.00000000E+00  0.00000000E+00  0.00000000E+00 -3.59824233E-17
  0.00000000E+00  0.00000000E+00  0.00000000E+00  0.00000000E+00  0.00000000E+00
  0.00000000E+00  0.00000000E+00  0.00000000E+00 -1.98069209E-16  4.82671628E-01
  0.00000000E+00  0.00000000E+00  0.00000000E+00  0.00000000E+00  1.00000000E+00
  0.00000000E+00  0.00000000E+00  0.00000000E+00  0.00000000E+00  0.00000000E+00
  0.00000000E+00 -3.11616927E-17  0.00000000E+00  0.00000000E+00  0.00000000E+00
  0.00000000E+00  0.00000000E+00  0.00000000E+00  0.00000000E+00  0.00000000E+00
 -1.71532967E-16  0.00000000E+00  0.00000000E+00  0.00000000E+00  4.82671628E-01
  0.00000000E+00  0.00000000E+00  0.00000000E+00  0.00000000E+00  1.00000000E+00
  0.00000000E+00  0.00000000E+00  0.00000000E+00  0.00000000E+00  0.00000000E+00
  0.00000000E+00  0.00000000E+00 -3.11616927E-17  0.00000000E+00  0.00000000E+00
  0.00000000E+00  0.00000000E+00  0.00000000E+00  0.00000000E+00  0.00000000E+00
  0.00000000E+00 -1.71532967E-16  0.00000000E+00  0.00000000E+00  0.00000000E+00
  4.82671628E-01  0.00000000E+00  0.00000000E+00  0.00000000E+00  0.00000000E+00
  1.00000000E+00  0.00000000E+00  0.00000000E+00  0.00000000E+00  0.00000000E+00
  0.00000000E+00  0.00000000E+00  0.00000000E+00  0.00000000E+00  0.00000000E+00
  0.00000000E+00  0.00000000E+00  0.00000000E+00  0.00000000E+00  0.00000000E+00
  0.00000000E+00  0.00000000E+00  0.00000000E+00  0.00000000E+00  0.00000000E+00
  0.00000000E+00  0.00000000E+00  4.82671628E-01  0.00000000E+00  0.00000000E+00
  0.00000000E+00  0.00000000E+00  1.00000000E+00  0.00000000E+00  0.00000000E+00
  0.00000000E+00  0.00000000E+00  0.00000000E+00  0.00000000E+00  0.00000000E+00
  0.00000000E+00  0.00000000E+00  0.00000000E+00  0.00000000E+00  0.00000000E+00
  0.00000000E+00  0.00000000E+00  0.00000000E+00  0.00000000E+00  0.00000000E+00
  0.00000000E+00  0.00000000E+00  0.00000000E+00  0.00000000E+00  0.00000000E+00
  4.82671628E-01  0.00000000E+00  0.00000000E+00  0.00000000E+00  0.00000000E+00
  1.00000000E+00  0.00000000E+00  0.00000000E+00  0.00000000E+00  0.00000000E+00
  0.00000000E+00  0.00000000E+00  0.00000000E+00  0.00000000E+00  3.23926479E-19
  0.00000000E+00  0.00000000E+00 -1.03131422E-17  0.00000000E+00  0.00000000E+00
  0.00000000E+00  0.00000000E+00  0.00000000E+00  0.00000000E+00  1.14343890E-01
  0.00000000E+00  0.00000000E+00  0.00000000E+00  0.00000000E+00  5.60848798E-01
  0.00000000E+00  0.00000000E+00  0.00000000E+00  0.00000000E+00  1.00000000E+00
  0.00000000E+00  0.00000000E+00  0.00000000E+00  0.00000000E+00  0.00000000E+00
  0.00000000E+00  2.80528559E-19  0.00000000E+00  0.00000000E+00 -8.93144310E-18
  0.00000000E+00  0.00000000E+00  0.00000000E+00  0.00000000E+00  0.00000000E+00
  0.00000000E+00  0.00000000E+00  0.00000000E+00  0.00000000E+00  1.14343890E-01
  0.00000000E+00  0.00000000E+00  0.00000000E+00  0.00000000E+00  5.60848798E-01
  0.00000000E+00  0.00000000E+00  0.00000000E+00  0.00000000E+00  1.00000000E+00
  0.00000000E+00  0.00000000E+00  0.00000000E+00  0.00000000E+00  0.00000000E+00
  0.00000000E+00  0.00000000E+00  2.80528559E-19  0.00000000E+00  0.00000000E+00
 -8.93144310E-18  0.00000000E+00  0.00000000E+00  0.00000000E+00  0.00000000E+00
  0.00000000E+00  0.00000000E+00  0.00000000E+00  0.00000000E+00  0.00000000E+00
  1.14343890E-01  0.00000000E+00  0.00000000E+00  0.00000000E+00  0.00000000E+00
  5.60848798E-01  0.00000000E+00  0.00000000E+00  0.00000000E+00  0.00000000E+00
  1.00000000E+00  0.00000000E+00  0.00000000E+00  0.00000000E+00  0.00000000E+00
  0.00000000E+00  0.00000000E+00  0.00000000E+00  0.00000000E+00  0.00000000E+00
  0.00000000E+00  0.00000000E+00  0.00000000E+00  0.00000000E+00  0.00000000E+00
  0.00000000E+00  0.00000000E+00  0.00000000E+00  0.00000000E+00  0.00000000E+00
  0.00000000E+00  0.00000000E+00  1.14343890E-01  0.00000000E+00  0.00000000E+00
  0.00000000E+00  0.00000000E+00  5.60848798E-01  0.00000000E+00  0.00000000E+00
  0.00000000E+00  0.00000000E+00  1.00000000E+00  0.00000000E+00  0.00000000E+00
  0.00000000E+00  0.00000000E+00  0.00000000E+00  0.00000000E+00  0.00000000E+00
  0.00000000E+00  0.00000000E+00  0.00000000E+00  0.00000000E+00  0.00000000E+00
  0.00000000E+00  0.00000000E+00  0.00000000E+00  0.00000000E+00  0.00000000E+00
  0.00000000E+00  0.00000000E+00  0.00000000E+00  0.00000000E+00  0.00000000E+00
  1.14343890E-01  0.00000000E+00  0.00000000E+00  0.00000000E+00  0.00000000E+00
  5.60848798E-01  0.00000000E+00  0.00000000E+00  0.00000000E+00  0.00000000E+00
  1.00000000E+00  0.00000000E+00  0.00000000E+00  0.00000000E+00  0.00000000E+00
  0.00000000E+00  0.00000000E+00  0.00000000E+00  0.00000000E+00 -4.17511065E-19
  0.00000000E+00  0.00000000E+00  1.44526999E-18  0.00000000E+00  0.00000000E+00
  3.29868227E-17  0.00000000E+00  0.00000000E+00  0.00000000E+00  1.83287020E-02
  0.00000000E+00  0.00000000E+00  0.00000000E+00  0.00000000E+00  1.33586646E-01
  0.00000000E+00  0.00000000E+00  0.00000000E+00  0.00000000E+00  5.64972802E-01
  0.00000000E+00  0.00000000E+00  0.00000000E+00  0.00000000E+00  1.00000000E+00
  0.00000000E+00  0.00000000E+00  0.00000000E+00  0.00000000E+00  0.00000000E+00
  0.00000000E+00 -3.61575189E-19  0.00000000E+00  0.00000000E+00  1.25164053E-18
  0.00000000E+00  0.00000000E+00  2.85674264E-17  0.00000000E+00  0.00000000E+00
  0.00000000E+00  0.00000000E+00  0.00000000E+00  0.00000000E+00  1.83287020E-02
  0.00000000E+00  0.00000000E+00  0.00000000E+00  0.00000000E+00  1.33586646E-01
  0.00000000E+00  0.00000000E+00  0.00000000E+00  0.00000000E+00  5.64972802E-01
  0.00000000E+00  0.00000000E+00  0.00000000E+00  0.00000000E+00  1.00000000E+00
  0.00000000E+00  0.00000000E+00  0.00000000E+00  0.00000000E+00  0.00000000E+00
  0.00000000E+00  0.00000000E+00 -3.61575189E-19  0.00000000E+00  0.00000000E+00
  1.25164053E-18  0.00000000E+00  0.00000000E+00  2.85674264E-17  0.00000000E+00
  0.00000000E+00  0.00000000E+00  0.00000000E+00  0.00000000E+00  0.00000000E+00
  1.83287020E-02  0.00000000E+00  0.00000000E+00  0.00000000E+00  0.00000000E+00
  1.33586646E-01  0.00000000E+00  0.00000000E+00  0.00000000E+00  0.00000000E+00
  5.64972802E-01  0.00000000E+00  0.00000000E+00  0.00000000E+00  0.00000000E+00
  1.00000000E+00  0.00000000E+00  0.00000000E+00  0.00000000E+00  0.00000000E+00
  0.00000000E+00  0.00000000E+00  0.00000000E+00  0.00000000E+00  0.00000000E+00
  0.00000000E+00  0.00000000E+00  0.00000000E+00  0.00000000E+00  0.00000000E+00
  0.00000000E+00  0.00000000E+00  0.00000000E+00  0.00000000E+00  0.00000000E+00
  0.00000000E+00  0.00000000E+00  1.83287020E-02  0.00000000E+00  0.00000000E+00
  0.00000000E+00  0.00000000E+00  1.33586646E-01  0.00000000E+00  0.00000000E+00
  0.00000000E+00  0.00000000E+00  5.64972802E-01  0.00000000E+00  0.00000000E+00
  0.00000000E+00  0.00000000E+00  1.00000000E+00  0.00000000E+00  0.00000000E+00
  0.00000000E+00  0.00000000E+00  0.00000000E+00  0.00000000E+00  0.00000000E+00
  0.00000000E+00  0.00000000E+00  0.00000000E+00  0.00000000E+00  0.00000000E+00
  0.00000000E+00  0.00000000E+00  0.00000000E+00  0.00000000E+00  0.00000000E+00
  0.00000000E+00  0.00000000E+00  0.00000000E+00  0.00000000E+00  0.00000000E+00
  1.83287020E-02  0.00000000E+00  0.00000000E+00  0.00000000E+00  0.00000000E+00
  1.33586646E-01  0.00000000E+00  0.00000000E+00  0.00000000E+00  0.00000000E+00
  5.64972802E-01  0.00000000E+00  0.00000000E+00  0.00000000E+00  0.00000000E+00
  1.00000000E+00  7.12594079E-33 -1.69481835E-32  9.86076132E-32  0.00000000E+00
 -4.93038066E-32  4.93038066E-32  0.00000000E+00  0.00000000E+00 -3.46944695E-17
  0.00000000E+00  0.00000000E+00 -1.11022302E-16  0.00000000E+00  0.00000000E+00
 -2.22044605E-16  0.00000000E+00  0.00000000E+00 -5.55111512E-17  1.02818973E-17
  0.00000000E+00  0.00000000E+00  0.00000000E+00  0.00000000E+00 -4.99233746E-16
  0.00000000E+00  0.00000000E+00  0.00000000E+00  0.00000000E+00  0.00000000E+00
  0.00000000E+00  0.00000000E+00  0.00000000E+00  0.00000000E+00 -2.66918142E-17
  0.00000000E+00  0.00000000E+00  0.00000000E+00  0.00000000E+00  1.00000000E+00
  0.00000000E+00  0.00000000E+00  0.00000000E+00  0.00000000E+00  0.00000000E+00
  0.00000000E+00  1.38777878E-17  0.00000000E+00  0.00000000E+00  1.11022302E-16
  0.00000000E+00  0.00000000E+00  2.22044605E-16  0.00000000E+00  0.00000000E+00
  0.00000000E+00  0.00000000E+00  0.00000000E+00  0.00000000E+00  9.69386572E-18
  0.00000000E+00  0.00000000E+00  0.00000000E+00  0.00000000E+00 -4.70682089E-16
  0.00000000E+00  0.00000000E+00  0.00000000E+00  0.00000000E+00  0.00000000E+00
  0.00000000E+00  0.00000000E+00  0.00000000E+00  0.00000000E+00 -2.51652838E-17
  0.00000000E+00  0.00000000E+00  0.00000000E+00  0.00000000E+00  1.00000000E+00
  0.00000000E+00  0.00000000E+00  0.00000000E+00  0.00000000E+00  0.00000000E+00
  0.00000000E+00  0.00000000E+00  1.38777878E-17  0.00000000E+00  0.00000000E+00
  1.11022302E-16  0.00000000E+00  0.00000000E+00  2.22044605E-16  0.00000000E+00
  0.00000000E+00  0.00000000E+00  0.00000000E+00  0.00000000E+00  0.00000000E+00
  9.69386572E-18  0.00000000E+00  0.00000000E+00  0.00000000E+00  0.00000000E+00
 -4.70682089E-16  0.00000000E+00  0.00000000E+00  0.00000000E+00  0.00000000E+00
  0.00000000E+00  0.00000000E+00  0.00000000E+00  0.00000000E+00  0.00000000E+00
 -2.51652838E-17  0.00000000E+00  0.00000000E+00  0.00000000E+00  0.00000000E+00
  1.00000000E+00  0.00000000E+00  0.00000000E+00  0.00000000E+00  0.00000000E+00
  0.00000000E+00  0.00000000E+00  0.00000000E+00  0.00000000E+00  0.00000000E+00
  0.00000000E+00  0.00000000E+00  0.00000000E+00  0.00000000E+00  0.00000000E+00
  0.00000000E+00  0.00000000E+00  0.00000000E+00  0.00000000E+00  0.00000000E+00
  0.00000000E+00  0.00000000E+00  7.66367375E-18  0.00000000E+00  0.00000000E+00
  0.00000000E+00  0.00000000E+00 -3.72106864E-16  0.00000000E+00  0.00000000E+00
  0.00000000E+00  0.00000000E+00  0.00000000E+00  0.00000000E+00  0.00000000E+00
  0.00000000E+00  0.00000000E+00 -1.98949037E-17  0.00000000E+00  0.00000000E+00
  0.00000000E+00  0.00000000E+00  1.00000000E+00  0.00000000E+00  0.00000000E+00
  0.00000000E+00  0.00000000E+00  0.00000000E+00  0.00000000E+00  0.00000000E+00
  0.00000000E+00  0.00000000E+00  0.00000000E+00  0.00000000E+00  0.00000000E+00
  0.00000000E+00  0.00000000E+00  0.00000000E+00  0.00000000E+00  0.00000000E+00
  0.00000000E+00  0.00000000E+00  0.00000000E+00  0.00000000E+00  0.00000000E+00
  7.66367375E-18  0.00000000E+00  0.00000000E+00  0.00000000E+00  0.00000000E+00
 -3.72106864E-16  0.00000000E+00  0.00000000E+00  0.00000000E+00  0.00000000E+00
  0.00000000E+00  0.00000000E+00  0.00000000E+00  0.00000000E+00  0.00000000E+00
 -1.98949037E-17  0.00000000E+00  0.00000000E+00  0.00000000E+00  0.00000000E+00
  1.00000000E+00  0.00000000E+00  0.00000000E+00  0.00000000E+00  0.00000000E+00
  0.00000000E+00  0.00000000E+00 -2.08166817E-17  0.00000000E+00  0.00000000E+00
  5.55111512E-17  0.00000000E+00  0.00000000E+00 -1.11022302E-16  0.00000000E+00
  0.00000000E+00  5.55111512E-17  0.00000000E+00  0.00000000E+00  0.00000000E+00
 -7.70371978E-34  0.00000000E+00  0.00000000E+00  0.00000000E+00  0.00000000E+00
  0.00000000E+00  0.00000000E+00  0.00000000E+00  0.00000000E+00  0.00000000E+00
  0.00000000E+00  0.00000000E+00  0.00000000E+00  0.00000000E+00  0.00000000E+00
  0.00000000E+00  0.00000000E+00  0.00000000E+00  0.00000000E+00  0.00000000E+00
 -3.05311332E-16  0.00000000E+00  0.00000000E+00  0.00000000E+00  1.00000000E+00
  0.00000000E+00  0.00000000E+00  0.00000000E+00  0.00000000E+00  0.00000000E+00
  0.00000000E+00  0.00000000E+00  2.08166817E-17  0.00000000E+00  0.00000000E+00
 -5.55111512E-17  0.00000000E+00  0.00000000E+00  1.11022302E-16  0.00000000E+00
  0.00000000E+00 -5.55111512E-17  0.00000000E+00  0.00000000E+00  0.00000000E+00
  7.70371978E-34  0.00000000E+00  0.00000000E+00  0.00000000E+00  0.00000000E+00
  0.00000000E+00  0.00000000E+00  0.00000000E+00  0.00000000E+00  0.00000000E+00
  0.00000000E+00  0.00000000E+00  0.00000000E+00  0.00000000E+00  0.00000000E+00
  0.00000000E+00  0.00000000E+00  0.00000000E+00  0.00000000E+00  0.00000000E+00
  4.16333634E-16  0.00000000E+00  0.00000000E+00  0.00000000E+00  1.00000000E+00
  5.02541917E-98  5.31636332E-24  1.27914878E-07  1.87017892E-04  5.85797330E-03
  4.97289631E-03  0.00000000E+00  0.00000000E+00  9.43937477E-24  0.00000000E+00
  0.00000000E+00  2.78168158E-06  0.00000000E+00  0.00000000E+00  2.25667468E-03
  0.00000000E+00  0.00000000E+00  1.18037087E-02  5.92382877E-07  0.00000000E+00
  0.00000000E+00  0.00000000E+00  0.00000000E+00  3.12207732E-03  0.00000000E+00
  0.00000000E+00  0.00000000E+00  0.00000000E+00  1.65900578E-02  0.00000000E+00
  0.00000000E+00  0.00000000E+00  0.00000000E+00  6.72082486E-03  0.00000000E+00
  0.00000000E+00  0.00000000E+00  0.00000000E+00  8.47080845E-05  0.00000000E+00
  0.00000000E+00  0.00000000E+00  0.00000000E+00  0.00000000E+00  0.00000000E+00
  1.00000000E+00  5.31636332E-24  9.73125860E-14  6.17998433E-06  1.74455187E-03
  4.07562019E-02  3.46615426E-02  0.00000000E+00  0.00000000E+00  2.45610500E-13
  0.00000000E+00  0.00000000E+00  7.06787618E-05  0.00000000E+00  0.00000000E+00
  1.75499542E-02  0.00000000E+00  0.00000000E+00  8.10605066E-02  2.98243937E-05
  0.00000000E+00  0.00000000E+00  0.00000000E+00  0.00000000E+00  2.44693261E-02
  0.00000000E+00  0.00000000E+00  0.00000000E+00  0.00000000E+00  1.11789264E-01
  0.00000000E+00  0.00000000E+00  0.00000000E+00  0.00000000E+00  4.61726685E-02
  0.00000000E+00  0.00000000E+00  0.00000000E+00  0.00000000E+00  1.38436398E-03
  0.00000000E+00  0.00000000E+00  0.00000000E+00  0.00000000E+00  0.00000000E+00
  0.00000000E+00  2.95567446E-01  1.00000000E+00  1.27914878E-07  6.17998433E-06
  1.18156737E-03  1.62516752E-02  1.50071002E-01  1.28851880E-01  0.00000000E+00
  0.00000000E+00  9.04824921E-06  0.00000000E+00  0.00000000E+00  4.28868977E-03
  0.00000000E+00  0.00000000E+00  9.12394103E-02  0.00000000E+00  0.00000000E+00
  2.80292074E-01  3.69513007E-03  0.00000000E+00  0.00000000E+00  0.00000000E+00
  0.00000000E+00  1.20892751E-01  0.00000000E+00  0.00000000E+00  0.00000000E+00
  0.00000000E+00  3.52398418E-01  0.00000000E+00  0.00000000E+00  0.00000000E+00
  0.00000000E+00  1.60112921E-01  0.00000000E+00  0.00000000E+00  0.00000000E+00
  0.00000000E+00  2.68224976E-02  0.00000000E+00  0.00000000E+00  0.00000000E+00
  0.00000000E+00  0.00000000E+00  0.00000000E+00 -1.08264241E-02  3.42793096E-01
  1.00000000E+00  1.87017892E-04  1.74455187E-03  1.62516752E-02  5.57415330E-02
  2.58878434E-01  2.26014427E-01  0.00000000E+00  0.00000000E+00  1.32219837E-03
  0.00000000E+00  0.00000000E+00  3.02892360E-02  0.00000000E+00  0.00000000E+00
  1.86419881E-01  0.00000000E+00  0.00000000E+00  4.40451149E-01  2.25270744E-02
  0.00000000E+00  0.00000000E+00  0.00000000E+00  0.00000000E+00  2.03304120E-01
  0.00000000E+00  0.00000000E+00  0.00000000E+00  0.00000000E+00  4.84225055E-01
  0.00000000E+00  0.00000000E+00  0.00000000E+00  0.00000000E+00  2.53243801E-01
  0.00000000E+00  0.00000000E+00  0.00000000E+00  0.00000000E+00  5.83941084E-02
  0.00000000E+00  0.00000000E+00  0.00000000E+00  0.00000000E+00  0.00000000E+00
  0.00000000E+00  5.75239087E-02  3.62845396E-01  8.85407027E-01  1.00000000E+00
  5.85797330E-03  4.07562019E-02  1.50071002E-01  2.58878434E-01  6.35058311E-01
  6.57277534E-01  0.00000000E+00  0.00000000E+00  5.34044140E-03  0.00000000E+00
  0.00000000E+00  6.03699370E-02  0.00000000E+00  0.00000000E+00  2.14983152E-01
  0.00000000E+00  0.00000000E+00  5.51719713E-01  1.01586962E-02  0.00000000E+00
  0.00000000E+00  0.00000000E+00  0.00000000E+00  6.95497864E-02  0.00000000E+00
  0.00000000E+00  0.00000000E+00  0.00000000E+00  2.48931358E-01  0.00000000E+00
  0.00000000E+00  0.00000000E+00  0.00000000E+00  3.28321508E-01  0.00000000E+00
  0.00000000E+00  0.00000000E+00  0.00000000E+00  5.06306556E-03  0.00000000E+00
  0.00000000E+00  0.00000000E+00  0.00000000E+00  0.00000000E+00  0.00000000E+00
  1.45087883E-02  9.99027138E-02  3.50703137E-01  5.67381150E-01  1.00000000E+00
  4.97289631E-03  3.46615426E-02  1.28851880E-01  2.26014427E-01  6.57277534E-01
  8.41998586E-01  0.00000000E+00  0.00000000E+00  1.73195492E-03  0.00000000E+00
  0.00000000E+00  2.04242590E-02  0.00000000E+00  0.00000000E+00  8.00157536E-02
  0.00000000E+00  0.00000000E+00  2.80750808E-01  1.33155834E-03  0.00000000E+00
  0.00000000E+00  0.00000000E+00  0.00000000E+00  1.05220964E-02  0.00000000E+00
  0.00000000E+00  0.00000000E+00  0.00000000E+00  5.55302442E-02  0.00000000E+00
  0.00000000E+00  0.00000000E+00  0.00000000E+00  1.50653661E-01  0.00000000E+00
  0.00000000E+00  0.00000000E+00  0.00000000E+00  2.71895485E-04  0.00000000E+00
  0.00000000E+00  0.00000000E+00  0.00000000E+00  0.00000000E+00  0.00000000E+00
  7.01320333E-03  4.88093048E-02  1.80152049E-01  3.12691061E-01  8.43508798E-01
  1.00000000E+00  0.00000000E+00  0.00000000E+00  0.00000000E+00  0.00000000E+00
  0.00000000E+00  0.00000000E+00  1.06556435E-14  0.00000000E+00  0.00000000E+00
  4.60876192E-06  0.00000000E+00  0.00000000E+00  1.26345021E-03  0.00000000E+00
  0.00000000E+00  5.92459394E-03  0.00000000E+00  0.00000000E+00  0.00000000E+00
  3.25821662E-06  0.00000000E+00  0.00000000E+00  0.00000000E+00  0.00000000E+00
  3.04894677E-03  0.00000000E+00  0.00000000E+00  0.00000000E+00  0.00000000E+00
  1.41865843E-02  0.00000000E+00  0.00000000E+00  0.00000000E+00  0.00000000E+00
  5.84483201E-03  0.00000000E+00  0.00000000E+00  0.00000000E+00  0.00000000E+00
  2.28006329E-04  0.00000000E+00  0.00000000E+00  0.00000000E+00 -8.47032947E-22
  0.00000000E+00  0.00000000E+00  0.00000000E+00  0.00000000E+00  0.00000000E+00
  0.00000000E+00  0.00000000E+00  1.00000000E+00  0.00000000E+00  0.00000000E+00
  0.00000000E+00  0.00000000E+00  0.00000000E+00  0.00000000E+00  0.00000000E+00
  1.06556435E-14  0.00000000E+00  0.00000000E+00  4.60876192E-06  0.00000000E+00
  0.00000000E+00  1.26345021E-03  0.00000000E+00  0.00000000E+00  5.92459394E-03
  0.00000000E+00  0.00000000E+00  0.00000000E+00  3.25821662E-06  0.00000000E+00
  0.00000000E+00  0.00000000E+00  0.00000000E+00  3.04894677E-03  0.00000000E+00
  0.00000000E+00  0.00000000E+00  0.00000000E+00  1.41865843E-02  0.00000000E+00
  0.00000000E+00  0.00000000E+00  0.00000000E+00  5.84483201E-03  0.00000000E+00
  0.00000000E+00  0.00000000E+00  0.00000000E+00  2.28006329E-04  0.00000000E+00
  0.00000000E+00  0.00000000E+00  8.47032947E-22  0.00000000E+00  0.00000000E+00
  0.00000000E+00  0.00000000E+00  0.00000000E+00  0.00000000E+00  0.00000000E+00
  1.00000000E+00 -9.43937477E-24 -2.45610500E-13 -9.04824921E-06 -1.32219837E-03
 -5.34044140E-03 -1.73195492E-03  0.00000000E+00  0.00000000E+00 -6.20201685E-13
  0.00000000E+00  0.00000000E+00 -9.11458682E-05  0.00000000E+00  0.00000000E+00
 -9.56134763E-03  0.00000000E+00  0.00000000E+00 -8.27260026E-03 -4.38051761E-05
  0.00000000E+00  0.00000000E+00  0.00000000E+00  0.00000000E+00 -1.43363098E-02