Jobname.Temp
SP        U                             non-standard        
Number of atoms                            I                2
Charge                                     I                0
Multiplicity                               I                3
Number of electrons                        I               16
Number of alpha electrons                  I                9
Number of beta electrons                   I                7
Atomic numbers                             I   N=           2
           8           8
Current cartesian coordinates              R   N=           6
  0.00000000E+00  0.00000000E+00  1.15619114E+00  0.00000000E+00  0.00000000E+00
 -1.15619114E+00
Nuclear charges                            R   N=           2
  8.00000000E+00  8.00000000E+00
Number of basis functions                  I               68
Number of contracted shells                I               24
Number of primitive shells                 I               42
Highest angular momentum                   I                3
Largest degree of contraction              I                6
Shell types                                I   N=          24
           0           0           0           0           0           1
           1           1           1          -2          -2          -3
           0           0           0           0           0           1
           1           1           1          -2          -2          -3
Number of primitives per shell             I   N=          24
           6           3           1           1           1           3
           1           1           1           1           1           1
           6           3           1           1           1           3
           1           1           1           1           1           1
Shell to atom map                          I   N=          24
           1           1           1           1           1           1
           1           1           1           1           1           1
           2           2           2           2           2           2
           2           2           2           2           2           2
Primitive exponents                        R   N=          42
  8.58850000E+03  1.29723000E+03  2.99296000E+02  8.73771000E+01  2.56789000E+01
  3.74004000E+00  4.21175000E+01  9.62837000E+00  2.85332000E+00  9.05661000E-01
  2.55611000E-01  8.45000000E-02  4.21175000E+01  9.62837000E+00  2.85332000E+00
  9.05661000E-01  2.55611000E-01  8.45000000E-02  2.58400000E+00  6.46000000E-01
  1.40000000E+00  8.58850000E+03  1.29723000E+03  2.99296000E+02  8.73771000E+01
  2.56789000E+01  3.74004000E+00  4.21175000E+01  9.62837000E+00  2.85332000E+00
  9.05661000E-01  2.55611000E-01  8.45000000E-02  4.21175000E+01  9.62837000E+00
  2.85332000E+00  9.05661000E-01  2.55611000E-01  8.45000000E-02  2.58400000E+00
  6.46000000E-01  1.40000000E+00
Contraction coefficients                   R   N=          42
  1.89515008E-03  1.43859006E-02  7.07320031E-02  2.40001011E-01  5.94797026E-01
  2.80802012E-01  1.13889012E-01  9.20811101E-01 -3.27447036E-03  1.00000000E+00
  1.00000000E+00  1.00000000E+00  3.65113974E-02  2.37152983E-01  8.19701941E-01
  1.00000000E+00  1.00000000E+00  1.00000000E+00  1.00000000E+00  1.00000000E+00
  1.00000000E+00  1.89515008E-03  1.43859006E-02  7.07320031E-02  2.40001011E-01
  5.94797026E-01  2.80802012E-01  1.13889012E-01  9.20811101E-01 -3.27447036E-03
  1.00000000E+00  1.00000000E+00  1.00000000E+00  3.65113974E-02  2.37152983E-01
  8.19701941E-01  1.00000000E+00  1.00000000E+00  1.00000000E+00  1.00000000E+00
  1.00000000E+00  1.00000000E+00
Coordinates of each shell                  R   N=          72
  0.00000000E+00  0.00000000E+00  1.15619114E+00  0.00000000E+00  0.00000000E+00
  1.15619114E+00  0.00000000E+00  0.00000000E+00  1.15619114E+00  0.00000000E+00
  0.00000000E+00  1.15619114E+00  0.00000000E+00  0.00000000E+00  1.15619114E+00
  0.00000000E+00  0.00000000E+00  1.15619114E+00  0.00000000E+00  0.00000000E+00
  1.15619114E+00  0.00000000E+00  0.00000000E+00  1.15619114E+00  0.00000000E+00
  0.00000000E+00  1.15619114E+00  0.00000000E+00  0.00000000E+00  1.15619114E+00
  0.00000000E+00  0.00000000E+00  1.15619114E+00  0.00000000E+00  0.00000000E+00
  1.15619114E+00  0.00000000E+00  0.00000000E+00 -1.15619114E+00  0.00000000E+00
  0.00000000E+00 -1.15619114E+00  0.00000000E+00  0.00000000E+00 -1.15619114E+00
  0.00000000E+00  0.00000000E+00 -1.15619114E+00  0.00000000E+00  0.00000000E+00
 -1.15619114E+00  0.00000000E+00  0.00000000E+00 -1.15619114E+00  0.00000000E+00
  0.00000000E+00 -1.15619114E+00  0.00000000E+00  0.00000000E+00 -1.15619114E+00
  0.00000000E+00  0.00000000E+00 -1.15619114E+00  0.00000000E+00  0.00000000E+00
 -1.15619114E+00  0.00000000E+00  0.00000000E+00 -1.15619114E+00  0.00000000E+00
  0.00000000E+00 -1.15619114E+00
Overlap Matrix                             R   N=        2346
  1.00000000E+00  9.01978651E-01  1.00000000E+00  3.52480886E-01  4.01486367E-01
  1.00000000E+00  1.57945028E-01  1.70297476E-01  7.54315385E-01  1.00000000E+00
  7.19421353E-02  7.61173868E-02  4.17689012E-01  8.03417269E-01  1.00000000E+00
  0.00000000E+00  0.00000000E+00  0.00000000E+00  0.00000000E+00  0.00000000E+00
  1.00000000E+00  0.00000000E+00  0.00000000E+00  0.00000000E+00  0.00000000E+00
  0.00000000E+00  0.00000000E+00  1.00000000E+00 -4.54528926E-16  0.00000000E+00
 -4.86382939E-16 -2.50395955E-16  0.00000000E+00  0.00000000E+00  0.00000000E+00
  1.00000000E+00  0.00000000E+00  0.00000000E+00  0.00000000E+00  0.00000000E+00
  0.00000000E+00  6.11992348E-01  0.00000000E+00  0.00000000E+00  1.00000000E+00
  0.00000000E+00  0.00000000E+00  0.00000000E+00  0.00000000E+00  0.00000000E+00
  0.00000000E+00  6.11992348E-01  0.00000000E+00  0.00000000E+00  1.00000000E+00
  9.10020731E-18  1.09463927E-18  0.00000000E+00  0.00000000E+00  1.76524953E-16
  0.00000000E+00  0.00000000E+00  6.11992348E-01  0.00000000E+00  0.00000000E+00
  1.00000000E+00  0.00000000E+00  0.00000000E+00  0.00000000E+00  0.00000000E+00
  0.00000000E+00  1.97194908E-01  0.00000000E+00  0.00000000E+00  6.25059859E-01
  0.00000000E+00  0.00000000E+00  1.00000000E+00  0.00000000E+00  0.00000000E+00
  0.00000000E+00  0.00000000E+00  0.00000000E+00  0.00000000E+00  1.97194908E-01
  0.00000000E+00  0.00000000E+00  6.25059859E-01  0.00000000E+00  0.00000000E+00
  1.00000000E+00  1.19521080E-17  2.99382863E-19  0.00000000E+00  0.00000000E+00
 -1.80385304E-16  0.00000000E+00  0.00000000E+00  1.97194908E-01  0.00000000E+00
  0.00000000E+00  6.25059859E-01  0.00000000E+00  0.00000000E+00  1.00000000E+00
  0.00000000E+00  0.00000000E+00  0.00000000E+00  0.00000000E+00  0.00000000E+00
  5.65704101E-02  0.00000000E+00  0.00000000E+00  2.33393317E-01  0.00000000E+00
  0.00000000E+00  6.94334274E-01  0.00000000E+00  0.00000000E+00  1.00000000E+00
  0.00000000E+00  0.00000000E+00  0.00000000E+00  0.00000000E+00  0.00000000E+00
  0.00000000E+00  5.65704101E-02  0.00000000E+00  0.00000000E+00  2.33393317E-01
  0.00000000E+00  0.00000000E+00  6.94334274E-01  0.00000000E+00  0.00000000E+00
  1.00000000E+00 -3.92974304E-21  0.00000000E+00  5.39202163E-17 -1.03714562E-16
  0.00000000E+00  0.00000000E+00  0.00000000E+00  5.65704101E-02  0.00000000E+00
  0.00000000E+00  2.33393317E-01  0.00000000E+00  0.00000000E+00  6.94334274E-01
  0.00000000E+00  0.00000000E+00  1.00000000E+00  0.00000000E+00  0.00000000E+00
  0.00000000E+00  0.00000000E+00  0.00000000E+00  0.00000000E+00  0.00000000E+00
  0.00000000E+00  0.00000000E+00  0.00000000E+00  0.00000000E+00  0.00000000E+00
  0.00000000E+00 -2.04340179E-16  0.00000000E+00  0.00000000E+00  0.00000000E+00
  1.00000000E+00  0.00000000E+00  0.00000000E+00  0.00000000E+00  0.00000000E+00
  0.00000000E+00  0.00000000E+00  0.00000000E+00  0.00000000E+00  0.00000000E+00
  0.00000000E+00  0.00000000E+00 -1.76963786E-16  0.00000000E+00  0.00000000E+00
  0.00000000E+00  0.00000000E+00  0.00000000E+00  0.00000000E+00  1.00000000E+00
  0.00000000E+00  0.00000000E+00  0.00000000E+00  0.00000000E+00  0.00000000E+00
  0.00000000E+00  0.00000000E+00  0.00000000E+00  0.00000000E+00  0.00000000E+00
  0.00000000E+00  0.00000000E+00 -1.76963786E-16  0.00000000E+00  0.00000000E+00
  0.00000000E+00  0.00000000E+00  0.00000000E+00  0.00000000E+00  1.00000000E+00
  0.00000000E+00  0.00000000E+00  0.00000000E+00  0.00000000E+00  0.00000000E+00
  0.00000000E+00  0.00000000E+00  0.00000000E+00  0.00000000E+00  0.00000000E+00
  0.00000000E+00  0.00000000E+00  0.00000000E+00  0.00000000E+00  0.00000000E+00
  0.00000000E+00  0.00000000E+00  0.00000000E+00  0.00000000E+00  0.00000000E+00
  1.00000000E+00  0.00000000E+00  0.00000000E+00  0.00000000E+00  0.00000000E+00
  0.00000000E+00  0.00000000E+00  0.00000000E+00  0.00000000E+00  0.00000000E+00
  0.00000000E+00  0.00000000E+00  0.00000000E+00  0.00000000E+00  0.00000000E+00
  0.00000000E+00  0.00000000E+00  0.00000000E+00  0.00000000E+00  0.00000000E+00
  0.00000000E+00  0.00000000E+00  1.00000000E+00  0.00000000E+00  0.00000000E+00
  0.00000000E+00  0.00000000E+00  0.00000000E+00  0.00000000E+00  0.00000000E+00
 -1.95237995E-16  0.00000000E+00  0.00000000E+00 -3.97774059E-16  0.00000000E+00
  0.00000000E+00  0.00000000E+00  0.00000000E+00  0.00000000E+00  0.00000000E+00
  4.57946722E-01  0.00000000E+00  0.00000000E+00  0.00000000E+00  0.00000000E+00
  1.00000000E+00  0.00000000E+00  0.00000000E+00  0.00000000E+00  0.00000000E+00
  0.00000000E+00 -1.69081063E-16  0.00000000E+00  0.00000000E+00 -3.44482440E-16
  0.00000000E+00  0.00000000E+00  0.00000000E+00  0.00000000E+00  0.00000000E+00
  0.00000000E+00  0.00000000E+00  0.00000000E+00  0.00000000E+00  4.57946722E-01
  0.00000000E+00  0.00000000E+00  0.00000000E+00  0.00000000E+00  1.00000000E+00
  0.00000000E+00  0.00000000E+00  0.00000000E+00  0.00000000E+00  0.00000000E+00
  0.00000000E+00 -1.69081063E-16  0.00000000E+00  0.00000000E+00 -3.44482440E-16
  0.00000000E+00  0.00000000E+00  0.00000000E+00  0.00000000E+00  0.00000000E+00
  0.00000000E+00  0.00000000E+00  0.00000000E+00  0.00000000E+00  4.57946722E-01
  0.00000000E+00  0.00000000E+00  0.00000000E+00  0.00000000E+00  1.00000000E+00
  0.00000000E+00  0.00000000E+00  0.00000000E+00  0.00000000E+00  0.00000000E+00
  0.00000000E+00  0.00000000E+00  0.00000000E+00  0.00000000E+00  0.00000000E+00
  0.00000000E+00  0.00000000E+00  0.00000000E+00  0.00000000E+00  0.00000000E+00
  0.00000000E+00  0.00000000E+00  0.00000000E+00  0.00000000E+00  0.00000000E+00
  4.57946722E-01  0.00000000E+00  0.00000000E+00  0.00000000E+00  0.00000000E+00
  1.00000000E+00  0.00000000E+00  0.00000000E+00  0.00000000E+00  0.00000000E+00
  0.00000000E+00  0.00000000E+00  0.00000000E+00  0.00000000E+00  0.00000000E+00
  0.00000000E+00  0.00000000E+00  0.00000000E+00  0.00000000E+00  0.00000000E+00
  0.00000000E+00  0.00000000E+00  0.00000000E+00  0.00000000E+00  0.00000000E+00
  0.00000000E+00  0.00000000E+00  4.57946722E-01  0.00000000E+00  0.00000000E+00
  0.00000000E+00  0.00000000E+00  1.00000000E+00  7.37270057E-35 -9.62964972E-35
  9.86076132E-32  0.00000000E+00  0.00000000E+00  0.00000000E+00  0.00000000E+00
  1.11022302E-16  0.00000000E+00  0.00000000E+00 -1.11022302E-16  0.00000000E+00
  0.00000000E+00 -1.11022302E-16  0.00000000E+00  0.00000000E+00  2.77555756E-17
  0.00000000E+00  0.00000000E+00  0.00000000E+00  0.00000000E+00  0.00000000E+00
  5.46055446E-16  0.00000000E+00  0.00000000E+00  0.00000000E+00  0.00000000E+00
  1.00000000E+00  0.00000000E+00  0.00000000E+00  0.00000000E+00  0.00000000E+00
  0.00000000E+00 -5.55111512E-17  0.00000000E+00  0.00000000E+00  1.11022302E-16
  0.00000000E+00  0.00000000E+00  5.55111512E-17  0.00000000E+00  0.00000000E+00
 -2.77555756E-17  0.00000000E+00  0.00000000E+00  0.00000000E+00  0.00000000E+00
  0.00000000E+00  0.00000000E+00  0.00000000E+00  0.00000000E+00  5.14826011E-16
  0.00000000E+00  0.00000000E+00  0.00000000E+00  0.00000000E+00  1.00000000E+00
  0.00000000E+00  0.00000000E+00  0.00000000E+00  0.00000000E+00  0.00000000E+00
  0.00000000E+00 -5.55111512E-17  0.00000000E+00  0.00000000E+00  1.11022302E-16
  0.00000000E+00  0.00000000E+00  5.55111512E-17  0.00000000E+00  0.00000000E+00
 -2.77555756E-17  0.00000000E+00  0.00000000E+00  0.00000000E+00  0.00000000E+00
  0.00000000E+00  0.00000000E+00  0.00000000E+00  0.00000000E+00  5.14826011E-16
  0.00000000E+00  0.00000000E+00  0.00000000E+00  0.00000000E+00  1.00000000E+00
  0.00000000E+00  0.00000000E+00  0.00000000E+00  0.00000000E+00  0.00000000E+00
  0.00000000E+00  0.00000000E+00  0.00000000E+00  0.00000000E+00  0.00000000E+00
  0.00000000E+00  0.00000000E+00  0.00000000E+00  0.00000000E+00  0.00000000E+00
  0.00000000E+00  0.00000000E+00  0.00000000E+00  0.00000000E+00  0.00000000E+00
  0.00000000E+00  0.00000000E+00  0.00000000E+00  0.00000000E+00  0.00000000E+00
  4.07005699E-16  0.00000000E+00  0.00000000E+00  0.00000000E+00  0.00000000E+00
  1.00000000E+00  0.00000000E+00  0.00000000E+00  0.00000000E+00  0.00000000E+00
  0.00000000E+00  0.00000000E+00  0.00000000E+00  0.00000000E+00  0.00000000E+00
  0.00000000E+00  0.00000000E+00  0.00000000E+00  0.00000000E+00  0.00000000E+00
  0.00000000E+00  0.00000000E+00  0.00000000E+00  0.00000000E+00  0.00000000E+00
  0.00000000E+00  0.00000000E+00  0.00000000E+00  0.00000000E+00  0.00000000E+00
  0.00000000E+00  0.00000000E+00  4.07005699E-16  0.00000000E+00  0.00000000E+00
  0.00000000E+00  0.00000000E+00  1.00000000E+00  0.00000000E+00  0.00000000E+00
  0.00000000E+00  0.00000000E+00  0.00000000E+00  1.11022302E-16  0.00000000E+00
  0.00000000E+00  0.00000000E+00  0.00000000E+00  0.00000000E+00  0.00000000E+00
  0.00000000E+00  0.00000000E+00  5.55111512E-17  0.00000000E+00  0.00000000E+00
  0.00000000E+00  0.00000000E+00  0.00000000E+00  0.00000000E+00  0.00000000E+00
  0.00000000E+00  4.93038066E-32  0.00000000E+00  0.00000000E+00  0.00000000E+00
  0.00000000E+00 -3.05311332E-16  0.00000000E+00  0.00000000E+00  0.00000000E+00
  1.00000000E+00  0.00000000E+00  0.00000000E+00  0.00000000E+00  0.00000000E+00
  0.00000000E+00  0.00000000E+00 -1.11022302E-16  0.00000000E+00  0.00000000E+00
  0.00000000E+00  0.00000000E+00  0.00000000E+00  0.00000000E+00  0.00000000E+00
  0.00000000E+00 -5.55111512E-17  0.00000000E+00  0.00000000E+00  0.00000000E+00
  0.00000000E+00  0.00000000E+00  0.00000000E+00  0.00000000E+00  0.00000000E+00
 -4.93038066E-32  0.00000000E+00  0.00000000E+00  0.00000000E+00  0.00000000E+00
  3.05311332E-16  0.00000000E+00  0.00000000E+00  0.00000000E+00  1.00000000E+00
  3.58755374E-06 -3.68818451E-08  5.42505347E-03  4.26933273E-02  4.60970028E-02
  0.00000000E+00  0.00000000E+00 -1.77404291E-04  0.00000000E+00  0.00000000E+00
 -2.02429403E-02  0.00000000E+00  0.00000000E+00 -9.54976609E-02  0.00000000E+00
  0.00000000E+00 -6.10488524E-02  8.89944966E-04  0.00000000E+00  0.00000000E+00
  0.00000000E+00  0.00000000E+00  8.26940018E-02  0.00000000E+00  0.00000000E+00
  0.00000000E+00  0.00000000E+00 -2.26445587E-02  0.00000000E+00  0.00000000E+00
  0.00000000E+00  0.00000000E+00  0.00000000E+00  0.00000000E+00  1.00000000E+00
 -3.68818451E-08 -3.08568873E-08  4.70997924E-03  4.48980548E-02  4.86270529E-02
  0.00000000E+00  0.00000000E+00 -2.21233968E-05  0.00000000E+00  0.00000000E+00
 -1.90358552E-02  0.00000000E+00  0.00000000E+00 -1.02398018E-01  0.00000000E+00
  0.00000000E+00 -6.48323663E-02  2.32430891E-04  0.00000000E+00  0.00000000E+00
  0.00000000E+00  0.00000000E+00  8.85372330E-02  0.00000000E+00  0.00000000E+00
  0.00000000E+00  0.00000000E+00 -2.08362985E-02  0.00000000E+00  0.00000000E+00
  0.00000000E+00  0.00000000E+00  0.00000000E+00  0.00000000E+00  9.01978651E-01
  1.00000000E+00  5.42505347E-03  4.70997924E-03  8.88029603E-02  2.59790641E-01
  2.76293945E-01  0.00000000E+00  0.00000000E+00 -3.24073803E-02  0.00000000E+00
  0.00000000E+00 -1.95420404E-01  0.00000000E+00  0.00000000E+00 -4.73734058E-01
  0.00000000E+00  0.00000000E+00 -3.39741968E-01  4.88953356E-02  0.00000000E+00
  0.00000000E+00  0.00000000E+00  0.00000000E+00  3.54273645E-01  0.00000000E+00
  0.00000000E+00  0.00000000E+00  0.00000000E+00 -1.30787401E-01  0.00000000E+00
  0.00000000E+00  0.00000000E+00  0.00000000E+00  0.00000000E+00  0.00000000E+00
  3.52480886E-01  4.01486367E-01  1.00000000E+00  4.26933273E-02  4.48980548E-02
  2.59790641E-01  5.04902321E-01  5.72092049E-01  0.00000000E+00  0.00000000E+00
 -6.54159981E-02  0.00000000E+00  0.00000000E+00 -2.51675851E-01  0.00000000E+00
  0.00000000E+00 -5.90278232E-01  0.00000000E+00  0.00000000E+00 -5.78019851E-01
  3.22819897E-02  0.00000000E+00  0.00000000E+00  0.00000000E+00  0.00000000E+00
  2.06084832E-01  0.00000000E+00  0.00000000E+00  0.00000000E+00  0.00000000E+00
 -3.01110591E-02  0.00000000E+00  0.00000000E+00  0.00000000E+00  0.00000000E+00
  0.00000000E+00  0.00000000E+00  1.57945028E-01  1.70297476E-01  7.54315385E-01
  1.00000000E+00  4.60970028E-02  4.86270529E-02  2.76293945E-01  5.72092049E-01
  7.97785534E-01  0.00000000E+00  0.00000000E+00 -2.45042439E-02  0.00000000E+00
  0.00000000E+00 -1.03775473E-01  0.00000000E+00  0.00000000E+00 -3.32339023E-01
  0.00000000E+00  0.00000000E+00 -5.36258442E-01  4.28136488E-03  0.00000000E+00
  0.00000000E+00  0.00000000E+00  0.00000000E+00  3.66206879E-02  0.00000000E+00
  0.00000000E+00  0.00000000E+00  0.00000000E+00 -1.60731118E-03  0.00000000E+00
  0.00000000E+00  0.00000000E+00  0.00000000E+00  0.00000000E+00  0.00000000E+00
  7.19421353E-02  7.61173868E-02  4.17689012E-01  8.03417269E-01  1.00000000E+00
  0.00000000E+00  0.00000000E+00  0.00000000E+00  0.00000000E+00  0.00000000E+00
  3.28758582E-04  0.00000000E+00  0.00000000E+00  1.47265651E-02  0.00000000E+00
  0.00000000E+00  5.59544423E-02  0.00000000E+00  0.00000000E+00  3.64546827E-02
  0.00000000E+00  0.00000000E+00  0.00000000E+00 -2.27823833E-03  0.00000000E+00
  0.00000000E+00  0.00000000E+00  0.00000000E+00 -8.42743429E-02  0.00000000E+00
  0.00000000E+00  0.00000000E+00  0.00000000E+00  4.12628361E-02  0.00000000E+00
  0.00000000E+00  0.00000000E+00  6.50521303E-19  0.00000000E+00  0.00000000E+00
  0.00000000E+00  0.00000000E+00  0.00000000E+00  0.00000000E+00  1.00000000E+00
  0.00000000E+00  0.00000000E+00  0.00000000E+00  0.00000000E+00  0.00000000E+00
  0.00000000E+00  3.28758582E-04  0.00000000E+00  0.00000000E+00  1.47265651E-02
  0.00000000E+00  0.00000000E+00  5.59544423E-02  0.00000000E+00  0.00000000E+00
  3.64546827E-02  0.00000000E+00  0.00000000E+00  0.00000000E+00 -2.27823833E-03
  0.00000000E+00  0.00000000E+00  0.00000000E+00  0.00000000E+00 -8.42743429E-02
  0.00000000E+00  0.00000000E+00  0.00000000E+00  0.00000000E+00  4.12628361E-02
  0.00000000E+00  0.00000000E+00  0.00000000E+00 -6.50521303E-19  0.00000000E+00
  0.00000000E+00  0.00000000E+00  0.00000000E+00  0.00000000E+00  0.00000000E+00
  1.00000000E+00  1.77404291E-04  2.21233968E-05  3.24073803E-02  6.54159981E-02
  2.45042439E-02  0.00000000E+00  0.00000000E+00 -4.70330760E-03  0.00000000E+00
  0.00000000E+00 -9.45723466E-02  0.00000000E+00  0.00000000E+00 -8.49910189E-02
  0.00000000E+00  0.00000000E+00  4.41731232E-03  1.65095753E-02  0.00000000E+00
  0.00000000E+00  0.00000000E+00  0.00000000E+00  1.79447915E-01  0.00000000E+00
  0.00000000E+00  0.00000000E+00  0.00000000E+00 -1.20939442E-01  0.00000000E+00
  0.00000000E+00  0.00000000E+00  0.00000000E+00  0.00000000E+00  0.00000000E+00
  4.54528926E-16  0.00000000E+00  4.86382939E-16  2.50395955E-16  0.00000000E+00
  0.00000000E+00  0.00000000E+00  1.00000000E+00  0.00000000E+00  0.00000000E+00
  0.00000000E+00  0.00000000E+00  0.00000000E+00  1.47265651E-02  0.00000000E+00
  0.00000000E+00  8.88029603E-02  0.00000000E+00  0.00000000E+00  2.15274280E-01
  0.00000000E+00  0.00000000E+00  1.54385580E-01  0.00000000E+00  0.00000000E+00
  0.00000000E+00 -3.84844775E-02  0.00000000E+00  0.00000000E+00  0.00000000E+00
  0.00000000E+00 -2.78841243E-01  0.00000000E+00  0.00000000E+00  0.00000000E+00
  0.00000000E+00  1.45579114E-01  0.00000000E+00  0.00000000E+00  0.00000000E+00
  0.00000000E+00  0.00000000E+00  0.00000000E+00  0.00000000E+00  0.00000000E+00
  0.00000000E+00  0.00000000E+00  6.11992348E-01  0.00000000E+00  0.00000000E+00
  1.00000000E+00  0.00000000E+00  0.00000000E+00  0.00000000E+00  0.00000000E+00
  0.00000000E+00  0.00000000E+00  1.47265651E-02  0.00000000E+00  0.00000000E+00
  8.88029603E-02  0.00000000E+00  0.00000000E+00  2.15274280E-01  0.00000000E+00
  0.00000000E+00  1.54385580E-01  0.00000000E+00  0.00000000E+00  0.00000000E+00
 -3.84844775E-02  0.00000000E+00  0.00000000E+00  0.00000000E+00  0.00000000E+00
 -2.78841243E-01  0.00000000E+00  0.00000000E+00  0.00000000E+00  0.00000000E+00
  1.45579114E-01  0.00000000E+00  0.00000000E+00  0.00000000E+00  0.00000000E+00
  0.00000000E+00  0.00000000E+00  0.00000000E+00  0.00000000E+00  0.00000000E+00
  0.00000000E+00  6.11992348E-01  0.00000000E+00  0.00000000E+00  1.00000000E+00
  2.02429403E-02  1.90358552E-02  1.95420404E-01  2.51675851E-01  1.03775473E-01
  0.00000000E+00  0.00000000E+00 -9.45723466E-02  0.00000000E+00  0.00000000E+00
 -3.41240523E-01  0.00000000E+00  0.00000000E+00 -2.43662277E-01  0.00000000E+00
  0.00000000E+00  2.67791527E-02  1.14910886E-01  0.00000000E+00  0.00000000E+00
  0.00000000E+00  0.00000000E+00  3.27174733E-01  0.00000000E+00  0.00000000E+00
  0.00000000E+00  0.00000000E+00 -1.71221858E-01  0.00000000E+00  0.00000000E+00
  0.00000000E+00  0.00000000E+00  0.00000000E+00  0.00000000E+00 -9.10020731E-18
 -1.09463927E-18  0.00000000E+00  0.00000000E+00 -1.76524953E-16  0.00000000E+00
  0.00000000E+00  6.11992348E-01  0.00000000E+00  0.00000000E+00  1.00000000E+00
  0.00000000E+00  0.00000000E+00  0.00000000E+00  0.00000000E+00  0.00000000E+00
  5.59544423E-02  0.00000000E+00  0.00000000E+00  2.15274280E-01  0.00000000E+00
  0.00000000E+00  5.04902321E-01  0.00000000E+00  0.00000000E+00  4.94416952E-01
  0.00000000E+00  0.00000000E+00  0.00000000E+00 -4.78268218E-02  0.00000000E+00
  0.00000000E+00  0.00000000E+00  0.00000000E+00 -3.05321407E-01  0.00000000E+00
  0.00000000E+00  0.00000000E+00  0.00000000E+00  6.30887985E-02  0.00000000E+00
  0.00000000E+00  0.00000000E+00  0.00000000E+00  0.00000000E+00  0.00000000E+00
  0.00000000E+00  0.00000000E+00  0.00000000E+00  0.00000000E+00  1.97194908E-01
  0.00000000E+00  0.00000000E+00  6.25059859E-01  0.00000000E+00  0.00000000E+00
  1.00000000E+00  0.00000000E+00  0.00000000E+00  0.00000000E+00  0.00000000E+00
  0.00000000E+00  0.00000000E+00  5.59544423E-02  0.00000000E+00  0.00000000E+00
  2.15274280E-01  0.00000000E+00  0.00000000E+00  5.04902321E-01  0.00000000E+00
  0.00000000E+00  4.94416952E-01  0.00000000E+00  0.00000000E+00  0.00000000E+00
 -4.78268218E-02  0.00000000E+00  0.00000000E+00  0.00000000E+00  0.00000000E+00
 -3.05321407E-01  0.00000000E+00  0.00000000E+00  0.00000000E+00  0.00000000E+00
  6.30887985E-02  0.00000000E+00  0.00000000E+00  0.00000000E+00  0.00000000E+00
  0.00000000E+00  0.00000000E+00  0.00000000E+00  0.00000000E+00  0.00000000E+00
  0.00000000E+00  1.97194908E-01  0.00000000E+00  0.00000000E+00  6.25059859E-01
  0.00000000E+00  0.00000000E+00  1.00000000E+00  9.54976609E-02  1.02398018E-01
  4.73734058E-01  5.90278232E-01  3.32339023E-01  0.00000000E+00  0.00000000E+00
 -8.49910189E-02  0.00000000E+00  0.00000000E+00 -2.43662277E-01  0.00000000E+00
  0.00000000E+00 -1.85188369E-01  0.00000000E+00  0.00000000E+00  1.58634358E-01
  1.34611537E-02  0.00000000E+00  0.00000000E+00  0.00000000E+00  0.00000000E+00
 -7.30077567E-03  0.00000000E+00  0.00000000E+00  0.00000000E+00  0.00000000E+00
  1.77322982E-02  0.00000000E+00  0.00000000E+00  0.00000000E+00  0.00000000E+00
  0.00000000E+00  0.00000000E+00 -1.19521080E-17 -2.99382863E-19  0.00000000E+00
  0.00000000E+00  1.80385304E-16  0.00000000E+00  0.00000000E+00  1.97194908E-01
  0.00000000E+00  0.00000000E+00  6.25059859E-01  0.00000000E+00  0.00000000E+00
  1.00000000E+00  0.00000000E+00  0.00000000E+00  0.00000000E+00  0.00000000E+00
  0.00000000E+00  3.64546827E-02  0.00000000E+00  0.00000000E+00  1.54385580E-01
  0.00000000E+00  0.00000000E+00  4.94416952E-01  0.00000000E+00  0.00000000E+00
  7.97785534E-01  0.00000000E+00  0.00000000E+00  0.00000000E+00 -1.10320160E-02
  0.00000000E+00  0.00000000E+00  0.00000000E+00  0.00000000E+00 -9.43624352E-02
  0.00000000E+00  0.00000000E+00  0.00000000E+00  0.00000000E+00  5.85716699E-03
  0.00000000E+00  0.00000000E+00  0.00000000E+00  5.55111512E-17  0.00000000E+00
  0.00000000E+00  0.00000000E+00  0.00000000E+00  0.00000000E+00  0.00000000E+00
  5.65704101E-02  0.00000000E+00  0.00000000E+00  2.33393317E-01  0.00000000E+00
  0.00000000E+00  6.94334274E-01  0.00000000E+00  0.00000000E+00  1.00000000E+00
  0.00000000E+00  0.00000000E+00  0.00000000E+00  0.00000000E+00  0.00000000E+00
  0.00000000E+00  3.64546827E-02  0.00000000E+00  0.00000000E+00  1.54385580E-01
  0.00000000E+00  0.00000000E+00  4.94416952E-01  0.00000000E+00  0.00000000E+00
  7.97785534E-01  0.00000000E+00  0.00000000E+00  0.00000000E+00 -1.10320160E-02
  0.00000000E+00  0.00000000E+00  0.00000000E+00  0.00000000E+00 -9.43624352E-02
  0.00000000E+00  0.00000000E+00  0.00000000E+00  0.00000000E+00  5.85716699E-03
  0.00000000E+00  0.00000000E+00  0.00000000E+00 -5.55111512E-17  0.00000000E+00
  0.00000000E+00  0.00000000E+00  0.00000000E+00  0.00000000E+00  0.00000000E+00
  5.65704101E-02  0.00000000E+00  0.00000000E+00  2.33393317E-01  0.00000000E+00
  0.00000000E+00  6.94334274E-01  0.00000000E+00  0.00000000E+00  1.00000000E+00
  6.10488524E-02  6.48323663E-02  3.39741968E-01  5.78019851E-01  5.36258442E-01
  0.00000000E+00  0.00000000E+00  4.41731232E-03  0.00000000E+00  0.00000000E+00
  2.67791527E-02  0.00000000E+00  0.00000000E+00  1.58634358E-01  0.00000000E+00
  0.00000000E+00  4.37321343E-01 -7.16520668E-03  0.00000000E+00  0.00000000E+00
  0.00000000E+00  0.00000000E+00 -6.54235275E-02  0.00000000E+00  0.00000000E+00
  0.00000000E+00  0.00000000E+00  5.13571542E-03  0.00000000E+00  0.00000000E+00
  0.00000000E+00  0.00000000E+00  0.00000000E+00  0.00000000E+00  3.92974304E-21
  0.00000000E+00 -5.39202163E-17  1.03714562E-16  0.00000000E+00  0.00000000E+00
  0.00000000E+00  5.65704101E-02  0.00000000E+00  0.00000000E+00  2.33393317E-01
  0.00000000E+00  0.00000000E+00  6.94334274E-01  0.00000000E+00  0.00000000E+00
  1.00000000E+00  8.89944966E-04  2.32430891E-04  4.88953356E-02  3.22819897E-02
  4.28136488E-03  0.00000000E+00  0.00000000E+00 -1.65095753E-02  0.00000000E+00
  0.00000000E+00 -1.14910886E-01  0.00000000E+00  0.00000000E+00 -1.34611537E-02
  0.00000000E+00  0.00000000E+00  7.16520668E-03  4.61803879E-02  0.00000000E+00
  0.00000000E+00  0.00000000E+00  0.00000000E+00  1.10134966E-01  0.00000000E+00
  0.00000000E+00  0.00000000E+00  0.00000000E+00 -1.57807600E-01  0.00000000E+00
  0.00000000E+00  0.00000000E+00  0.00000000E+00  0.00000000E+00  0.00000000E+00
  0.00000000E+00  0.00000000E+00  0.00000000E+00  0.00000000E+00  0.00000000E+00
  0.00000000E+00  0.00000000E+00  0.00000000E+00  0.00000000E+00  0.00000000E+00
  0.00000000E+00  0.00000000E+00  0.00000000E+00  2.04340179E-16  0.00000000E+00
  0.00000000E+00  0.00000000E+00  1.00000000E+00  0.00000000E+00  0.00000000E+00
  0.00000000E+00  0.00000000E+00  0.00000000E+00  2.27823833E-03  0.00000000E+00
  0.00000000E+00  3.84844775E-02  0.00000000E+00  0.00000000E+00  4.78268218E-02
  0.00000000E+00  0.00000000E+00  1.10320160E-02  0.00000000E+00  0.00000000E+00
  0.00000000E+00 -1.28078001E-02  0.00000000E+00  0.00000000E+00  0.00000000E+00
  0.00000000E+00 -1.30761518E-01  0.00000000E+00  0.00000000E+00  0.00000000E+00
  0.00000000E+00  1.14636371E-01  0.00000000E+00  0.00000000E+00  0.00000000E+00
  8.67361738E-19  0.00000000E+00  0.00000000E+00  0.00000000E+00  0.00000000E+00
  0.00000000E+00  0.00000000E+00  0.00000000E+00  0.00000000E+00  0.00000000E+00
  0.00000000E+00  0.00000000E+00  0.00000000E+00  1.76963786E-16  0.00000000E+00
  0.00000000E+00  0.00000000E+00  0.00000000E+00  0.00000000E+00  0.00000000E+00
  1.00000000E+00  0.00000000E+00  0.00000000E+00  0.00000000E+00  0.00000000E+00
  0.00000000E+00  0.00000000E+00  2.27823833E-03  0.00000000E+00  0.00000000E+00
  3.84844775E-02  0.00000000E+00  0.00000000E+00  4.78268218E-02  0.00000000E+00
  0.00000000E+00  1.10320160E-02  0.00000000E+00  0.00000000E+00  0.00000000E+00
 -1.28078001E-02  0.00000000E+00  0.00000000E+00  0.00000000E+00  0.00000000E+00
 -1.30761518E-01  0.00000000E+00  0.00000000E+00  0.00000000E+00  0.00000000E+00
  1.14636371E-01  0.00000000E+00  0.00000000E+00  0.00000000E+00 -8.67361738E-19
  0.00000000E+00  0.00000000E+00  0.00000000E+00  0.00000000E+00  0.00000000E+00
  0.00000000E+00  0.00000000E+00  0.00000000E+00  0.00000000E+00  0.00000000E+00
  0.00000000E+00  0.00000000E+00  1.76963786E-16  0.00000000E+00  0.00000000E+00
  0.00000000E+00  0.00000000E+00  0.00000000E+00  0.00000000E+00  1.00000000E+00
  0.00000000E+00  0.00000000E+00  0.00000000E+00  0.00000000E+00  0.00000000E+00
  0.00000000E+00  0.00000000E+00  0.00000000E+00  0.00000000E+00  0.00000000E+00
  0.00000000E+00  0.00000000E+00  0.00000000E+00  0.00000000E+00  0.00000000E+00
  0.00000000E+00  0.00000000E+00  0.00000000E+00  0.00000000E+00  0.00000000E+00
  9.99287135E-04  0.00000000E+00  0.00000000E+00  0.00000000E+00  0.00000000E+00
  2.88862438E-02  0.00000000E+00  0.00000000E+00  0.00000000E+00  0.00000000E+00
 -2.35070813E-02  0.00000000E+00  0.00000000E+00  0.00000000E+00  0.00000000E+00
  0.00000000E+00  0.00000000E+00  0.00000000E+00  0.00000000E+00  0.00000000E+00
  0.00000000E+00  0.00000000E+00  0.00000000E+00  0.00000000E+00  0.00000000E+00
  0.00000000E+00  0.00000000E+00  0.00000000E+00  0.00000000E+00  0.00000000E+00
  0.00000000E+00  0.00000000E+00  0.00000000E+00  0.00000000E+00  1.00000000E+00
  0.00000000E+00  0.00000000E+00  0.00000000E+00  0.00000000E+00  0.00000000E+00