Education Project: Integration Grids 2.                                 
Stability RMN15                                                       Gen                 
Number of atoms                            I                2
Info1-9                                    I   N=           9
          89          84           0           0           0         111
           7          18        -302
Full Title                                 C   N=           4
Education Project: Integration Grids 2.         
Route                                      C   N=           6
#P MN15/Gen Integral=FineGrid SCF=(XQC,NoSymm) Stable=Opt IO
p(1/33=1)   
Charge                                     I                0
Multiplicity                               I                1
Number of electrons                        I               36
Number of alpha electrons                  I               18
Number of beta electrons                   I               18
Number of basis functions                  I              158
Number of independent functions            I              158
Number of point charges in /Mol/           I                0
Number of translation vectors              I                0
Atomic numbers                             I   N=           2
          18          18
Nuclear charges                            R   N=           2
  1.80000000E+01  1.80000000E+01
Current cartesian coordinates              R   N=           6
  0.00000000E+00  0.00000000E+00  3.02356180E+00  3.70279528E-16  0.00000000E+00
 -3.02356180E+00
Number of symbols in /Mol/                 I                0
Force Field                                I                0
Atom Types                                 C   N=           2
                        
Int Atom Types                             I   N=           2
           0           0
MM charges                                 R   N=           2
  0.00000000E+00  0.00000000E+00
Integer atomic weights                     I   N=           2
          40          40
Real atomic weights                        R   N=           2
  3.99623831E+01  3.99623831E+01
Atom fragment info                         I   N=           2
           0           0
Atom residue num                           I   N=           2
           0           0
Nuclear spins                              I   N=           2
           0           0
Nuclear ZEff                               R   N=           2
 -1.49000000E+01 -1.49000000E+01
Nuclear ZNuc                               R   N=           2
  1.80000000E+01  1.80000000E+01
Nuclear QMom                               R   N=           2
  0.00000000E+00  0.00000000E+00
Nuclear GFac                               R   N=           2
  0.00000000E+00  0.00000000E+00
MicOpt                                     I   N=           2
          -1          -1
Number of residues                         I                0
Number of secondary structures             I                0
SymInf integers                            I   N=          26
           2           8           1           1           1          -1
           1          -1          -1          -1           1           1
          -1          -1          -1           1           1           1
          -1           1           1           1          -1          -1
          -1          -1
RotTr to input orientation                 R   N=          12
  1.00000000E+00  0.00000000E+00  0.00000000E+00  0.00000000E+00 -1.00000000E+00
  0.00000000E+00  0.00000000E+00  0.00000000E+00 -1.00000000E+00  0.00000000E+00
  0.00000000E+00  3.02356180E+00
Number of contracted shells                I               50
Number of primitive shells                 I               88
Pure/Cartesian d shells                    I                0
Pure/Cartesian f shells                    I                0
Highest angular momentum                   I                4
Largest degree of contraction              I               10
Shell types                                I   N=          50
           0           0           0           0           0           0
           0           0           0           0           1           1
           1           1           1           1           1          -2
          -2          -2          -2          -2          -3          -3
          -4           0           0           0           0           0
           0           0           0           0           0           1
           1           1           1           1           1           1
          -2          -2          -2          -2          -2          -3
          -3          -4
Number of primitives per shell             I   N=          50
          10           3           1           1           1           1
           1           1           1           1           8           2
           1           1           1           1           1           1
           1           1           1           1           1           1
           1          10           3           1           1           1
           1           1           1           1           1           8
           2           1           1           1           1           1
           1           1           1           1           1           1
           1           1
Shell to atom map                          I   N=          50
           1           1           1           1           1           1
           1           1           1           1           1           1
           1           1           1           1           1           1
           1           1           1           1           1           1
           1           2           2           2           2           2
           2           2           2           2           2           2
           2           2           2           2           2           2
           2           2           2           2           2           2
           2           2
Primitive exponents                        R   N=          88
  1.67342195E+06  2.50601754E+05  5.70309121E+04  1.61533039E+04  5.26941093E+03
  1.90203155E+03  7.41576772E+02  3.07209019E+02  1.33527862E+02  6.02533813E+01
  5.22024262E+02  1.61512905E+02  6.21263694E+01  2.75909300E+01  1.11755289E+01
  5.29590651E+00  2.47827989E+00  9.12620951E-01  4.04260675E-01  1.65628863E-01
  6.51293647E-02  2.86845046E+03  6.79718696E+02  2.20367588E+02  8.36204397E+01
  3.49643227E+01  1.55251318E+01  7.09929798E+00  3.30213366E+00  1.28787657E+02
  8.43578680E+00  1.46186619E+00  6.46580101E-01  2.72292958E-01  1.09051824E-01
  3.01011497E-02  6.31500000E+00  1.56200000E+00  7.15000000E-01  2.97000000E-01
  1.01050282E-01  1.32500000E+00  5.43000000E-01  1.00700000E+00  1.67342195E+06
  2.50601754E+05  5.70309121E+04  1.61533039E+04  5.26941093E+03  1.90203155E+03
  7.41576772E+02  3.07209019E+02  1.33527862E+02  6.02533813E+01  5.22024262E+02
  1.61512905E+02  6.21263694E+01  2.75909300E+01  1.11755289E+01  5.29590651E+00
  2.47827989E+00  9.12620951E-01  4.04260675E-01  1.65628863E-01  6.51293647E-02
  2.86845046E+03  6.79718696E+02  2.20367588E+02  8.36204397E+01  3.49643227E+01
  1.55251318E+01  7.09929798E+00  3.30213366E+00  1.28787657E+02  8.43578680E+00
  1.46186619E+00  6.46580101E-01  2.72292958E-01  1.09051824E-01  3.01011497E-02
  6.31500000E+00  1.56200000E+00  7.15000000E-01  2.97000000E-01  1.01050282E-01
  1.32500000E+00  5.43000000E-01  1.00700000E+00
Contraction coefficients                   R   N=          88
  1.39742539E-05  1.08638069E-04  5.71118789E-04  2.40615468E-03  8.69745161E-03
  2.77249485E-02  7.80452401E-02  1.87646592E-01  3.56795601E-01  4.52125653E-01
  2.27723684E-02  2.07282938E-01  8.05194862E-01  1.00000000E+00  1.00000000E+00
  1.00000000E+00  1.00000000E+00  1.00000000E+00  1.00000000E+00  1.00000000E+00
  1.00000000E+00  2.48989981E-04  2.16784199E-03  1.17900653E-02  4.65636814E-02
  1.37270291E-01  2.87347250E-01  4.00429814E-01  2.95473735E-01 -4.79069313E-02
  1.00654426E+00  1.00000000E+00  1.00000000E+00  1.00000000E+00  1.00000000E+00
  1.00000000E+00  1.00000000E+00  1.00000000E+00  1.00000000E+00  1.00000000E+00
  1.00000000E+00  1.00000000E+00  1.00000000E+00  1.00000000E+00  1.39742539E-05
  1.08638069E-04  5.71118789E-04  2.40615468E-03  8.69745161E-03  2.77249485E-02
  7.80452401E-02  1.87646592E-01  3.56795601E-01  4.52125653E-01  2.27723684E-02
  2.07282938E-01  8.05194862E-01  1.00000000E+00  1.00000000E+00  1.00000000E+00
  1.00000000E+00  1.00000000E+00  1.00000000E+00  1.00000000E+00  1.00000000E+00
  2.48989981E-04  2.16784199E-03  1.17900653E-02  4.65636814E-02  1.37270291E-01
  2.87347250E-01  4.00429814E-01  2.95473735E-01 -4.79069313E-02  1.00654426E+00
  1.00000000E+00  1.00000000E+00  1.00000000E+00  1.00000000E+00  1.00000000E+00
  1.00000000E+00  1.00000000E+00  1.00000000E+00  1.00000000E+00  1.00000000E+00
  1.00000000E+00  1.00000000E+00  1.00000000E+00
Coordinates of each shell                  R   N=         150
  0.00000000E+00  0.00000000E+00  3.02356180E+00  0.00000000E+00  0.00000000E+00
  3.02356180E+00  0.00000000E+00  0.00000000E+00  3.02356180E+00  0.00000000E+00
  0.00000000E+00  3.02356180E+00  0.00000000E+00  0.00000000E+00  3.02356180E+00
  0.00000000E+00  0.00000000E+00  3.02356180E+00  0.00000000E+00  0.00000000E+00
  3.02356180E+00  0.00000000E+00  0.00000000E+00  3.02356180E+00  0.00000000E+00
  0.00000000E+00  3.02356180E+00  0.00000000E+00  0.00000000E+00  3.02356180E+00
  0.00000000E+00  0.00000000E+00  3.02356180E+00  0.00000000E+00  0.00000000E+00
  3.02356180E+00  0.00000000E+00  0.00000000E+00  3.02356180E+00  0.00000000E+00
  0.00000000E+00  3.02356180E+00  0.00000000E+00  0.00000000E+00  3.02356180E+00
  0.00000000E+00  0.00000000E+00  3.02356180E+00  0.00000000E+00  0.00000000E+00
  3.02356180E+00  0.00000000E+00  0.00000000E+00  3.02356180E+00  0.00000000E+00
  0.00000000E+00  3.02356180E+00  0.00000000E+00  0.00000000E+00  3.02356180E+00
  0.00000000E+00  0.00000000E+00  3.02356180E+00  0.00000000E+00  0.00000000E+00
  3.02356180E+00  0.00000000E+00  0.00000000E+00  3.02356180E+00  0.00000000E+00
  0.00000000E+00  3.02356180E+00  0.00000000E+00  0.00000000E+00  3.02356180E+00
  3.70279528E-16  0.00000000E+00 -3.02356180E+00  3.70279528E-16  0.00000000E+00
 -3.02356180E+00  3.70279528E-16  0.00000000E+00 -3.02356180E+00  3.70279528E-16
  0.00000000E+00 -3.02356180E+00  3.70279528E-16  0.00000000E+00 -3.02356180E+00
  3.70279528E-16  0.00000000E+00 -3.02356180E+00  3.70279528E-16  0.00000000E+00
 -3.02356180E+00  3.70279528E-16  0.00000000E+00 -3.02356180E+00  3.70279528E-16
  0.00000000E+00 -3.02356180E+00  3.70279528E-16  0.00000000E+00 -3.02356180E+00
  3.70279528E-16  0.00000000E+00 -3.02356180E+00  3.70279528E-16  0.00000000E+00
 -3.02356180E+00  3.70279528E-16  0.00000000E+00 -3.02356180E+00  3.70279528E-16
  0.00000000E+00 -3.02356180E+00  3.70279528E-16  0.00000000E+00 -3.02356180E+00
  3.70279528E-16  0.00000000E+00 -3.02356180E+00  3.70279528E-16  0.00000000E+00
 -3.02356180E+00  3.70279528E-16  0.00000000E+00 -3.02356180E+00  3.70279528E-16
  0.00000000E+00 -3.02356180E+00  3.70279528E-16  0.00000000E+00 -3.02356180E+00
  3.70279528E-16  0.00000000E+00 -3.02356180E+00  3.70279528E-16  0.00000000E+00
 -3.02356180E+00  3.70279528E-16  0.00000000E+00 -3.02356180E+00  3.70279528E-16
  0.00000000E+00 -3.02356180E+00  3.70279528E-16  0.00000000E+00 -3.02356180E+00
Num ILSW                                   I              100
ILSW                                       I   N=         100
           0           0           0           0           2           1
           0           0           0           0        7252          -1
           4           0           0           0           0           0
           0           0           0           0           0           0
           1           0           0           0           0           0
           0           0      100000           0          -1           0
           0           0           0           0           0           0
           0           0           0           1           0           0
           0 -2000000000           1           0           0           0
           0           0           4          52           0           0
           0           0          73           0           0           0
           0           0           0           2           0           1
           0           0           0           0           0           0
           0           0           0           0           0           0
           0           0           0           0           0           0
           0           0           0           0           0           0
           0           0           0           0
Num RLSW                                   I               52
RLSW                                       R   N=          52
  1.00000000E+00  1.00000000E+00  1.00000000E+00  1.00000000E+00  4.40000000E-01
  0.00000000E+00  0.00000000E+00  1.00000000E+00  0.00000000E+00  0.00000000E+00
  0.00000000E+00  0.00000000E+00  1.00000000E+00  0.00000000E+00  0.00000000E+00
  0.00000000E+00  0.00000000E+00  1.00000000E+00  0.00000000E+00  0.00000000E+00
  0.00000000E+00  0.00000000E+00  1.00000000E+00  0.00000000E+00  0.00000000E+00
  0.00000000E+00  0.00000000E+00  1.00000000E+00  0.00000000E+00  0.00000000E+00
  0.00000000E+00  0.00000000E+00  1.00000000E+00  0.00000000E+00  0.00000000E+00
  0.00000000E+00  0.00000000E+00  0.00000000E+00  1.00000000E+00  1.00000000E+00
  0.00000000E+00  1.00000000E+00  0.00000000E+00  0.00000000E+00  0.00000000E+00
  0.00000000E+00  0.00000000E+00  0.00000000E+00  0.00000000E+00  0.00000000E+00
  0.00000000E+00  0.00000000E+00
MxBond                                     I                1
NBond                                      I   N=           2
           0           0
IBond                                      I   N=           2
           0           0
RBond                                      R   N=           2
  0.00000000E+00  0.00000000E+00
Virial Ratio                               R      2.001595370707996E+00
SCF Energy                                 R     -1.055080567753161E+03
Total Energy                               R     -1.055080567753161E+03
RMS Density                                R      9.898880523022931E-09
Job Status                                 I                1
Nuclear derivative order                   I                0
External E-field                           R   N=          35
  0.00000000E+00  0.00000000E+00  0.00000000E+00  0.00000000E+00  0.00000000E+00
  0.00000000E+00  0.00000000E+00  0.00000000E+00  0.00000000E+00  0.00000000E+00
  0.00000000E+00  0.00000000E+00  0.00000000E+00  0.00000000E+00  0.00000000E+00
  0.00000000E+00  0.00000000E+00  0.00000000E+00  0.00000000E+00  0.00000000E+00
  0.00000000E+00  0.00000000E+00  0.00000000E+00  0.00000000E+00  0.00000000E+00
  0.00000000E+00  0.00000000E+00  0.00000000E+00  0.00000000E+00  0.00000000E+00
  0.00000000E+00  0.00000000E+00  0.00000000E+00  0.00000000E+00  0.00000000E+00
IOpCl                                      I                0
IROHF                                      I                0
Alpha Orbital Energies                     R   N=         158
 -1.13874527E+02 -1.13874521E+02 -1.08156628E+01 -1.08156609E+01 -8.64569804E+00
 -8.64569804E+00 -8.64569767E+00 -8.64569767E+00 -8.64555704E+00 -8.64555690E+00
 -1.00114762E+00 -9.94614597E-01 -4.89956816E-01 -4.75062588E-01 -4.75062588E-01
 -4.68489089E-01 -4.68489089E-01 -4.53450372E-01  6.06691648E-02  7.61675147E-02
  7.61675147E-02  8.27449374E-02  9.99763073E-02  9.99763073E-02  1.01774134E-01
  1.93558160E-01  2.07148476E-01  2.07148476E-01  2.16212212E-01  2.16514479E-01
  2.59368789E-01  2.59571012E-01  2.63564128E-01  2.74791170E-01  3.09221561E-01
  3.09221561E-01  3.37980837E-01  3.37980837E-01  3.48089955E-01  3.99467392E-01
  3.99467392E-01  5.71417570E-01  5.71540433E-01  5.85768742E-01  5.95270575E-01
  5.95302294E-01  6.02436011E-01  6.02436011E-01  6.02526778E-01  6.23050675E-01
  6.23050675E-01  6.37114127E-01  6.62278782E-01  7.55514982E-01  1.28580165E+00
  1.32958133E+00  1.32958133E+00  1.34465846E+00  1.34465846E+00  1.43146844E+00
  1.49980480E+00  1.54127624E+00  1.54127624E+00  1.54596828E+00  1.54674363E+00
  1.56412232E+00  1.56507677E+00  1.60854336E+00  1.60854336E+00  1.65808415E+00
  1.65808415E+00  1.67132281E+00  1.67154631E+00  1.67394059E+00  1.67394059E+00
  1.67448290E+00  1.67448290E+00  1.67514548E+00  1.68174890E+00  1.68222053E+00
  1.72101003E+00  1.73279768E+00  1.73279768E+00  1.89606764E+00  2.55068250E+00
  2.68939621E+00  3.86780909E+00  3.88913441E+00  3.88913441E+00  3.90074710E+00
  3.90092492E+00  3.91867722E+00  3.91881692E+00  3.96552214E+00  3.96552214E+00
  4.00213593E+00  4.23311725E+00  4.23315534E+00  4.23337402E+00  4.23428184E+00
  4.23428184E+00  4.23466838E+00  4.23466838E+00  4.23471308E+00  4.23474679E+00
  4.23474841E+00  4.23474882E+00  4.23505450E+00  4.23505450E+00  4.23540226E+00
  4.23563596E+00  4.23612493E+00  4.23612493E+00  4.24128461E+00  4.32553904E+00
  4.33452519E+00  4.33452519E+00  4.35496987E+00  4.35496987E+00  4.55235175E+00
  4.62066542E+00  4.62066542E+00  4.63421891E+00  4.63443994E+00  4.63702274E+00
  4.63702274E+00  4.63746015E+00  4.63746015E+00  4.64214879E+00  4.64238316E+00
  4.64976018E+00  4.68030033E+00  4.68030033E+00  4.81296616E+00  9.47658704E+00
  9.59406174E+00  1.26738711E+01  1.26779767E+01  1.26779767E+01  1.26809472E+01
  1.26809546E+01  1.26921539E+01  1.26921582E+01  1.27206452E+01  1.27206452E+01
  1.27716998E+01  3.22148433E+01  3.23206366E+01  5.31049489E+01  5.31049489E+01
  5.31049817E+01  5.31049817E+01  5.31051113E+01  5.31052783E+01  1.10618406E+02
  1.10720553E+02  5.79733891E+02  5.79900984E+02
Alpha MO coefficients                      R   N=       24964
  5.81499800E-01 -3.29271784E-02  1.99706324E-01 -1.65386074E-02  3.07035748E-02
 -1.85474009E-02  1.02557770E-02 -6.85647559E-03  3.56153435E-03 -1.68527536E-03
 -1.42263829E-15  3.09968708E-15  6.19194212E-06  1.55069554E-15 -3.02120925E-15
  9.30596567E-07  1.08936701E-16 -3.93814850E-16 -4.41881948E-05 -7.86206171E-17
  2.13355423E-17  9.97925076E-05  2.05803071E-16  3.65078434E-17 -1.08595382E-04
 -2.30489653E-16  5.98624697E-17  1.53517824E-04 -4.88069891E-17  4.84180141E-18
  3.09442226E-04 -8.47283054E-06 -1.79721840E-17 -3.09286367E-16 -2.84199295E-16
 -9.45803378E-18  4.72913083E-05  1.65090955E-17  3.11170538E-16  3.46106459E-16
  1.30251583E-17 -1.05391577E-04  8.19684205E-17 -7.73157472E-17 -2.39648747E-16
 -1.06793712E-17  1.26266521E-04 -1.41772337E-16 -2.60897585E-16  2.13156259E-17
  4.16897050E-18 -1.28665764E-04  9.67821447E-17  2.53676819E-16  7.05241614E-17
 -3.89138691E-19  1.86336267E-05 -2.50825140E-16 -2.72973641E-18  1.61177096E-16
 -1.59622929E-17 -7.08803303E-17  1.07701232E-16 -3.34898419E-05  1.90789105E-16
  1.46259879E-17 -6.68854096E-17  9.42994121E-18 -4.16257437E-17 -4.64395587E-17
  6.20986793E-06 -1.62283981E-16  3.27595313E-17 -2.69812666E-18 -3.21594769E-20
 -2.92624768E-17  2.37300436E-17  1.45240839E-10 -3.93886959E-20 -5.81499817E-01
  3.29271794E-02 -1.99706330E-01  1.65386079E-02 -3.07035757E-02  1.85474015E-02
 -1.02557773E-02  6.85647577E-03 -3.56153443E-03  1.68527538E-03 -2.77901839E-15
  6.25245762E-16  6.19194211E-06  2.88437902E-15 -5.92489242E-16  9.30596558E-07
  2.56972301E-16 -8.16860435E-17 -4.41881946E-05 -9.99668056E-17 -4.43820925E-17
  9.97925072E-05  2.11110910E-16  3.52553763E-17 -1.08595382E-04 -2.41234171E-16
  6.82632251E-17  1.53517824E-04 -2.50539199E-17  4.96681411E-18  3.09442227E-04
  8.47283056E-06  1.91362327E-16  3.78993545E-16 -2.45415951E-16 -9.40908339E-17
 -4.72913084E-05 -2.29098708E-16 -3.95476224E-16  3.01603467E-16  1.15179222E-16
  1.05391577E-04  9.83544942E-17  1.47936692E-16 -2.99219873E-16 -9.61363005E-17
 -1.26266522E-04  6.02300889E-17  2.29536558E-16  2.09978193E-16  4.17837465E-17
  1.28665766E-04 -6.08646244E-17 -2.41058913E-16 -1.28480844E-16 -1.11376405E-17
  1.86336262E-05 -4.02867000E-16 -2.92260847E-17  1.60552995E-16 -1.60607063E-17
 -7.09130644E-17  1.07858113E-16 -3.34898411E-05  2.84207837E-16  3.11962422E-17
 -6.57892555E-17  9.61800720E-18 -4.16078653E-17 -4.65357915E-17 -6.20986780E-06
  1.64815422E-16 -3.24001320E-17  2.80403412E-18  5.66760095E-20  2.92642028E-17
 -2.37495550E-17 -1.45240840E-10  2.99664017E-20  5.81494971E-01 -3.29133131E-02
  1.99665959E-01 -1.64140662E-02  3.04499944E-02 -1.82009370E-02  9.70519987E-03
 -6.03445101E-03  2.63817782E-03 -6.79031730E-04 -3.40316953E-16  6.81802134E-17
 -1.92478584E-07  2.41019803E-16 -3.09929269E-17 -2.50032210E-07  1.15734999E-16
 -5.04259362E-17  6.18202601E-06  6.36011052E-17 -2.05828750E-17 -1.20407211E-05
 -9.55311810E-17  6.57431105E-17 -1.07263051E-05  1.61895017E-16  1.38447216E-17
  4.02340345E-06 -6.11076639E-17 -5.70228546E-18  1.48326680E-05 -7.29670069E-07
  3.03420798E-16 -3.01605744E-16  2.86278729E-16  4.10701377E-16  2.52268277E-06
 -3.48245821E-16  3.09911982E-16 -2.57790090E-16 -5.07564816E-16 -3.50925801E-06
  3.10385681E-16 -4.98599070E-16  2.62738413E-16  4.28696921E-16  1.41720526E-05
 -1.28222501E-16  2.45368027E-16 -1.60256543E-16 -1.89451963E-16 -7.04278065E-05
 -6.34211549E-17  4.10158570E-17  2.36100428E-17  5.66964858E-17 -1.54425798E-05
  1.43577037E-16 -1.36116938E-16 -2.78942771E-16  2.87960784E-17 -3.90544073E-17
 -9.71206344E-17  2.93583717E-05 -1.57564108E-16  3.56735575E-17  1.82590128E-16
 -1.82231163E-17 -2.71357358E-16  8.24804302E-17 -4.25917172E-06 -1.00657622E-16
  4.12653058E-18  3.33122233E-17  2.14971866E-19  3.23153788E-18  7.18081841E-18
  1.79806596E-11  3.84380404E-20  5.81494954E-01 -3.29133121E-02  1.99665953E-01
 -1.64140657E-02  3.04499936E-02 -1.82009365E-02  9.70519957E-03 -6.03445081E-03
  2.63817771E-03 -6.79031681E-04  3.84777665E-16 -1.31799915E-16  1.92478763E-07
 -4.74793171E-16  1.58136494E-16  2.50032239E-07  1.95571907E-17  3.60940243E-18
 -6.18202730E-06  8.98215405E-17 -7.14093008E-17  1.20407240E-05 -1.03713510E-16
  1.07654409E-16  1.07263019E-05  1.76951740E-16 -1.37246068E-17 -4.02339899E-06
 -4.32476752E-17  7.39160069E-18 -1.48326590E-05 -7.29669824E-07 -5.79226496E-18
  5.29624712E-16 -4.61918610E-16 -4.51434839E-16  2.52268140E-06 -2.67839239E-17
 -5.94049740E-16  6.34631235E-16  5.57989592E-16 -3.50925495E-06  1.44067182E-17
  7.38060308E-16 -4.76084876E-16 -4.69993918E-16  1.41720489E-05 -2.83575979E-17
 -3.47324863E-16  1.58516587E-16  2.06693929E-16 -7.04278028E-05  1.38487283E-16
 -2.24836064E-17 -6.26173289E-17 -6.09292569E-17  1.54425804E-05  3.11642356E-17
  1.13550355E-16 -3.54229261E-16  2.87366709E-17 -3.91710564E-17 -9.74105751E-17
 -2.93583726E-05 -8.84436242E-17 -1.16810434E-16  1.93242625E-16 -1.80511620E-17
 -2.71263902E-16  8.27210774E-17 -4.25917190E-06  1.02096269E-16 -9.01077381E-18
  3.48883422E-17 -2.12719239E-19 -3.27169051E-18 -7.10606947E-18  1.79806599E-11
 -3.41506904E-21 -1.65002703E-01 -5.46892314E-02 -1.06347025E-01  1.20493553E-01
  3.64968418E-01  3.13973400E-01  2.28509378E-02  7.19570380E-04 -8.21843571E-04
  6.09374383E-04  1.45249065E-15 -5.13244090E-16  5.67703323E-05  9.65960397E-17
  6.53923111E-16  4.41356824E-07  1.49019767E-16  2.04789453E-16  1.93424749E-05
 -7.82731387E-17  5.38557979E-17 -3.60675166E-05  1.11285414E-16 -1.70051612E-16
  3.90021910E-05 -6.79885561E-17  1.52129343E-16 -7.31419312E-05  7.11102564E-17
  4.79905560E-17 -1.19937924E-04 -1.37116154E-06 -1.82377086E-16  1.18419827E-16
 -2.55047074E-16 -6.03922075E-17 -1.70582800E-05  2.82659709E-16 -1.44583572E-16
  5.71131876E-16  8.44121499E-17  3.67337844E-05 -1.44226868E-16  2.60297459E-16
 -6.46870992E-16 -8.80004365E-17 -4.20912689E-05  5.55501467E-17 -9.06673408E-17
  3.31182262E-16  4.31264101E-17  5.57437218E-05  3.18184267E-17  4.24851040E-17
 -1.09407192E-16  2.37338407E-17 -5.56644267E-06  4.97240043E-17 -6.21831796E-17
  1.49184941E-16 -2.07156406E-17  2.82702390E-18  1.99355973E-17  8.81468788E-06
 -5.72777089E-17  7.66825217E-17 -2.15423019E-17  9.84337814E-18 -1.16282505E-16
 -4.04924182E-17 -1.66150805E-06  6.36313678E-18  7.63945617E-17  9.64001382E-18
 -9.47771576E-18 -2.40280020E-16  2.00939853E-16 -1.22994815E-07 -2.70719322E-18
  1.65002702E-01  5.46892310E-02  1.06347024E-01 -1.20493552E-01 -3.64968416E-01
 -3.13973398E-01 -2.28509377E-02 -7.19570378E-04  8.21843568E-04 -6.09374381E-04
 -9.72901564E-16  2.08020703E-15  5.67703320E-05 -5.59395427E-16 -7.77934290E-16
  4.41356823E-07 -2.02772784E-16 -1.10203337E-16  1.93424749E-05  1.00257655E-16
  2.60110747E-16 -3.60675165E-05 -1.01186010E-16 -7.61145435E-17  3.90021909E-05
  7.06170156E-17 -7.50092544E-17 -7.31419312E-05 -9.24329100E-17 -3.29611613E-17
 -1.19937924E-04  1.37116152E-06 -2.30248107E-16 -2.04629329E-16 -9.54020776E-17
  1.30753322E-16  1.70582800E-05  2.40997036E-16  2.08578972E-16 -5.03136972E-17
 -1.42932286E-16 -3.67337844E-05 -2.86348483E-16 -3.23754277E-16  1.65592020E-16
  1.21231169E-16  4.20912688E-05  1.48577547E-16  1.26659971E-16 -1.14542919E-16
 -5.53738154E-17 -5.57437217E-05 -1.21746716E-16 -2.39348954E-16  5.62083246E-17
 -1.95046345E-17 -5.56644271E-06 -4.04353359E-17  1.02807380E-16  1.53235229E-16
 -1.98227192E-17 -9.84625850E-18  6.36256380E-17  8.81468793E-06  7.12363058E-17
 -2.12575934E-16 -2.30900677E-17  9.46896757E-18 -1.08873474E-16 -8.74788324E-17
  1.66150806E-06 -4.38363404E-18 -1.51073098E-16 -9.77498953E-18  9.39952661E-18
  2.40136303E-16 -1.44650873E-16  1.22994814E-07  2.80062210E-18 -1.65002368E-01
 -5.46911557E-02 -1.06340686E-01  1.20469125E-01  3.65029258E-01  3.13878063E-01
  2.30283928E-02  4.38116667E-04 -4.95883928E-04  2.21102346E-04 -1.95768075E-15
 -8.69893729E-16  5.71481935E-05  7.46522579E-16  2.63168302E-16  6.24247328E-07
  3.58438760E-17  2.28685552E-16  5.94007612E-06 -1.13274866E-16 -3.33178806E-16
 -3.84071033E-06  6.85131065E-17  8.56134283E-17  2.09825242E-05 -1.43226324E-16
  1.28457099E-16 -8.58731759E-06  1.10103564E-16  4.86051587E-17 -3.96008372E-06
 -3.45586664E-06 -1.78858120E-16 -6.56070976E-17  1.60663784E-17  3.62105112E-16
 -6.20551436E-07  1.82885608E-16  6.01471196E-17 -1.92675506E-16 -5.01793456E-16
 -8.65897685E-08 -2.55846368E-16  5.64712311E-17  2.35294385E-16  3.83135861E-16
 -8.97566907E-06  1.38371909E-16  1.04387296E-16 -1.17188719E-16 -1.42320661E-16
  3.04870260E-05 -8.12725999E-17  9.02988937E-17  2.41838178E-16  9.28445833E-17
  3.56196180E-06 -3.71899485E-16  3.36898924E-16  2.73714790E-16  9.23750936E-16
 -1.96443404E-16  1.25608583E-16 -8.02318814E-06  2.66807525E-16 -1.24583574E-16
 -1.25970376E-16 -4.99585244E-16  8.31523895E-17 -9.72214516E-17  7.41712539E-07
 -5.60682431E-17 -7.41112499E-18  2.07151214E-17 -3.95636513E-17  2.27609675E-16
 -9.28963915E-17 -1.22246193E-07  3.98166793E-17 -1.65002369E-01 -5.46911561E-02
 -1.06340687E-01  1.20469125E-01  3.65029260E-01  3.13878065E-01  2.30283929E-02
  4.38116671E-04 -4.95883933E-04  2.21102350E-04  5.54850227E-16 -1.56292020E-15
 -5.71481938E-05  2.21912309E-16  9.91966212E-16 -6.24247331E-07  1.05636668E-16
 -8.16702940E-17 -5.94007624E-06 -2.54444458E-17  1.42790885E-16  3.84071055E-06
  7.57243560E-19 -1.65796541E-16 -2.09825244E-05  9.71749385E-17  1.56196058E-16
  8.58731803E-06 -9.18980336E-17 -5.92242578E-17  3.96008445E-06 -3.45586664E-06
  1.69850248E-16 -3.96103871E-17  7.36871162E-17 -1.25677903E-16 -6.20551541E-07
 -1.67001886E-16 -6.46800550E-17 -1.12787791E-16  1.79412648E-16 -8.65895460E-08
  2.29190882E-16 -7.79284689E-17  3.23473505E-17 -2.45796219E-16 -8.97566933E-06
 -1.16807913E-16 -7.85342311E-17  1.15337016E-16  1.81576128E-16  3.04870264E-05
  1.00789306E-16 -1.49193077E-16  3.00700544E-17 -1.12136571E-16 -3.56196177E-06
  3.26445647E-16 -2.92364232E-16  1.89204589E-16  9.92395931E-16  2.07643196E-16
 -5.76210695E-17  8.02318809E-06 -9.75383056E-17  5.79385068E-17 -2.21620768E-16
 -6.48256232E-16 -1.47616750E-16 -3.73612760E-17  7.41712529E-07 -2.16445006E-17
 -9.62262255E-17 -5.32141887E-17  1.76047231E-17 -2.46672571E-16  1.31933440E-16
 -1.22246194E-07 -3.37114619E-18  2.17750026E-16  7.47003139E-17  1.12115395E-16
 -1.08560529E-16 -2.75930050E-16 -5.69823179E-16 -1.14660782E-15  1.95652805E-15
 -2.99937572E-15  2.98106212E-15 -7.29680859E-02  6.97167473E-01  1.97329599E-11
  2.19750875E-03 -2.09959135E-02 -5.94351273E-13 -4.97773391E-03  4.75593423E-02
  1.34642204E-12 -5.98761076E-05  5.72081262E-04  1.55246697E-14 -1.75783615E-05
  1.67950985E-04  5.54139044E-15 -2.68949179E-06  2.56965235E-05 -8.99287786E-16
  1.30266871E-06 -1.24462387E-05 -5.60183661E-16  2.81659431E-16 -5.68834166E-07
  5.43487845E-06  2.42570250E-16 -2.09140197E-16 -5.15061873E-16 -3.18192962E-07
  3.04014811E-06  1.46693601E-15 -2.02544456E-17  6.66700767E-16  1.98801985E-07
 -1.89943706E-06 -1.47946415E-15  1.63299257E-16 -3.47225199E-16 -1.16542084E-07
  1.11349168E-06  1.58427181E-15 -1.55415099E-16  6.54391490E-16  5.60839304E-07
 -5.35849150E-06 -1.88339149E-15  5.50288267E-17 -3.07874294E-16  2.13786845E-07
 -2.04260839E-06  5.14262052E-16  3.05687187E-16  1.30045877E-08  1.24251248E-07
  5.17394460E-16 -2.37527349E-07  2.26943489E-06 -4.33838915E-16 -2.83124482E-17
  1.97830045E-09  1.89015032E-08 -2.62594622E-16  5.81838711E-08 -5.55912894E-07
  2.84334707E-17 -2.63944321E-16 -3.07546621E-08 -2.93842849E-07 -2.83520724E-17
  3.29223688E-17  5.35668783E-16  1.85206824E-16  3.04921658E-16 -2.92961233E-16
 -1.16020898E-15 -9.00517344E-16 -1.37878552E-15  1.72604550E-15 -1.18730133E-15
 -5.46290420E-16  7.29681013E-02 -6.97167463E-01 -1.97323334E-11 -2.19750922E-03
  2.09959133E-02  5.94309787E-13  4.97773497E-03 -4.75593416E-02 -1.34621520E-12
  5.98761203E-05 -5.72081254E-04 -1.57410232E-14  1.75783653E-05 -1.67950982E-04
 -4.78928940E-15  2.68949219E-06 -2.56965233E-05 -1.46975837E-15 -1.30266888E-06