Jobname.Temp
SP        R                             def2-QZVPPD         
Number of atoms                            I                3
Charge                                     I                0
Multiplicity                               I                1
Number of electrons                        I               24
Number of alpha electrons                  I               12
Number of beta electrons                   I               12
Atomic numbers                             I   N=           3
           8           8           8
Current cartesian coordinates              R   N=           9
  2.38078531E-11  8.71182726E-17  8.33792936E-01 -2.04567663E+00 -1.63404861E-16
 -4.16896468E-01  2.04567663E+00  7.62865887E-17 -4.16896468E-01
Nuclear charges                            R   N=           3
  8.00000000E+00  8.00000000E+00  8.00000000E+00
Number of basis functions                  I              198
Number of contracted shells                I               60
Number of primitive shells                 I               96
Highest angular momentum                   I                4
Largest degree of contraction              I                8
Shell types                                I   N=          60
           0           0           0           0           0           0
           0           0           1           1           1           1
           1          -2          -2          -2          -2          -3
          -3          -4           0           0           0           0
           0           0           0           0           1           1
           1           1           1          -2          -2          -2
          -2          -3          -3          -4           0           0
           0           0           0           0           0           0
           1           1           1           1           1          -2
          -2          -2          -2          -3          -3          -4
Number of primitives per shell             I   N=          60
           8           2           1           1           1           1
           1           1           5           1           1           1
           1           1           1           1           1           1
           1           1           8           2           1           1
           1           1           1           1           5           1
           1           1           1           1           1           1
           1           1           1           1           8           2
           1           1           1           1           1           1
           5           1           1           1           1           1
           1           1           1           1           1           1
Shell to atom map                          I   N=          60
           1           1           1           1           1           1
           1           1           1           1           1           1
           1           1           1           1           1           1
           1           1           2           2           2           2
           2           2           2           2           2           2
           2           2           2           2           2           2
           2           2           2           2           3           3
           3           3           3           3           3           3
           3           3           3           3           3           3
           3           3           3           3           3           3
Primitive exponents                        R   N=          96
  1.16506469E+05  1.75043497E+04  3.99345132E+03  1.13300632E+03  3.69995696E+02
  1.33620743E+02  5.20356436E+01  2.14619393E+01  8.98350513E+01  2.64280108E+01
  9.28228246E+00  4.09477285E+00  1.32553491E+00  5.18772308E-01  1.97726765E-01
  6.96385351E-02  1.91152558E+02  4.52333567E+01  1.43534659E+01  5.24223718E+00
  2.07924186E+00  8.42823714E-01  3.36176949E-01  1.28639980E-01  4.35981628E-02
  3.77500000E+00  1.30000000E+00  4.44000000E-01  1.25463787E-01  2.66600000E+00
  8.59000000E-01  1.84600000E+00  1.16506469E+05  1.75043497E+04  3.99345132E+03
  1.13300632E+03  3.69995696E+02  1.33620743E+02  5.20356436E+01  2.14619393E+01
  8.98350513E+01  2.64280108E+01  9.28228246E+00  4.09477285E+00  1.32553491E+00
  5.18772308E-01  1.97726765E-01  6.96385351E-02  1.91152558E+02  4.52333567E+01
  1.43534659E+01  5.24223718E+00  2.07924186E+00  8.42823714E-01  3.36176949E-01
  1.28639980E-01  4.35981628E-02  3.77500000E+00  1.30000000E+00  4.44000000E-01
  1.25463787E-01  2.66600000E+00  8.59000000E-01  1.84600000E+00  1.16506469E+05
  1.75043497E+04  3.99345132E+03  1.13300632E+03  3.69995696E+02  1.33620743E+02
  5.20356436E+01  2.14619393E+01  8.98350513E+01  2.64280108E+01  9.28228246E+00
  4.09477285E+00  1.32553491E+00  5.18772308E-01  1.97726765E-01  6.96385351E-02
  1.91152558E+02  4.52333567E+01  1.43534659E+01  5.24223718E+00  2.07924186E+00
  8.42823714E-01  3.36176949E-01  1.28639980E-01  4.35981628E-02  3.77500000E+00
  1.30000000E+00  4.44000000E-01  1.25463787E-01  2.66600000E+00  8.59000000E-01
  1.84600000E+00
Contraction coefficients                   R   N=          96
  7.19875758E-05  5.57148772E-04  2.91300317E-03  1.21720511E-02  4.30037618E-02
  1.29647624E-01  3.19696086E-01  5.89314588E-01  9.48480528E-02  9.25363788E-01
  1.00000000E+00  1.00000000E+00  1.00000000E+00  1.00000000E+00  1.00000000E+00
  1.00000000E+00  2.53595741E-03  2.02338243E-02  9.45180200E-02  3.09154328E-01
  6.84689495E-01  1.00000000E+00  1.00000000E+00  1.00000000E+00  1.00000000E+00
  1.00000000E+00  1.00000000E+00  1.00000000E+00  1.00000000E+00  1.00000000E+00
  1.00000000E+00  1.00000000E+00  7.19875758E-05  5.57148772E-04  2.91300317E-03
  1.21720511E-02  4.30037618E-02  1.29647624E-01  3.19696086E-01  5.89314588E-01
  9.48480528E-02  9.25363788E-01  1.00000000E+00  1.00000000E+00  1.00000000E+00
  1.00000000E+00  1.00000000E+00  1.00000000E+00  2.53595741E-03  2.02338243E-02
  9.45180200E-02  3.09154328E-01  6.84689495E-01  1.00000000E+00  1.00000000E+00
  1.00000000E+00  1.00000000E+00  1.00000000E+00  1.00000000E+00  1.00000000E+00
  1.00000000E+00  1.00000000E+00  1.00000000E+00  1.00000000E+00  7.19875758E-05
  5.57148772E-04  2.91300317E-03  1.21720511E-02  4.30037618E-02  1.29647624E-01
  3.19696086E-01  5.89314588E-01  9.48480528E-02  9.25363788E-01  1.00000000E+00
  1.00000000E+00  1.00000000E+00  1.00000000E+00  1.00000000E+00  1.00000000E+00
  2.53595741E-03  2.02338243E-02  9.45180200E-02  3.09154328E-01  6.84689495E-01
  1.00000000E+00  1.00000000E+00  1.00000000E+00  1.00000000E+00  1.00000000E+00
  1.00000000E+00  1.00000000E+00  1.00000000E+00  1.00000000E+00  1.00000000E+00
  1.00000000E+00
Coordinates of each shell                  R   N=         180
  2.38078531E-11  8.71182726E-17  8.33792936E-01  2.38078531E-11  8.71182726E-17
  8.33792936E-01  2.38078531E-11  8.71182726E-17  8.33792936E-01  2.38078531E-11
  8.71182726E-17  8.33792936E-01  2.38078531E-11  8.71182726E-17  8.33792936E-01
  2.38078531E-11  8.71182726E-17  8.33792936E-01  2.38078531E-11  8.71182726E-17
  8.33792936E-01  2.38078531E-11  8.71182726E-17  8.33792936E-01  2.38078531E-11
  8.71182726E-17  8.33792936E-01  2.38078531E-11  8.71182726E-17  8.33792936E-01
  2.38078531E-11  8.71182726E-17  8.33792936E-01  2.38078531E-11  8.71182726E-17
  8.33792936E-01  2.38078531E-11  8.71182726E-17  8.33792936E-01  2.38078531E-11
  8.71182726E-17  8.33792936E-01  2.38078531E-11  8.71182726E-17  8.33792936E-01
  2.38078531E-11  8.71182726E-17  8.33792936E-01  2.38078531E-11  8.71182726E-17
  8.33792936E-01  2.38078531E-11  8.71182726E-17  8.33792936E-01  2.38078531E-11
  8.71182726E-17  8.33792936E-01  2.38078531E-11  8.71182726E-17  8.33792936E-01
 -2.04567663E+00 -1.63404861E-16 -4.16896468E-01 -2.04567663E+00 -1.63404861E-16
 -4.16896468E-01 -2.04567663E+00 -1.63404861E-16 -4.16896468E-01 -2.04567663E+00
 -1.63404861E-16 -4.16896468E-01 -2.04567663E+00 -1.63404861E-16 -4.16896468E-01
 -2.04567663E+00 -1.63404861E-16 -4.16896468E-01 -2.04567663E+00 -1.63404861E-16
 -4.16896468E-01 -2.04567663E+00 -1.63404861E-16 -4.16896468E-01 -2.04567663E+00
 -1.63404861E-16 -4.16896468E-01 -2.04567663E+00 -1.63404861E-16 -4.16896468E-01
 -2.04567663E+00 -1.63404861E-16 -4.16896468E-01 -2.04567663E+00 -1.63404861E-16
 -4.16896468E-01 -2.04567663E+00 -1.63404861E-16 -4.16896468E-01 -2.04567663E+00
 -1.63404861E-16 -4.16896468E-01 -2.04567663E+00 -1.63404861E-16 -4.16896468E-01
 -2.04567663E+00 -1.63404861E-16 -4.16896468E-01 -2.04567663E+00 -1.63404861E-16
 -4.16896468E-01 -2.04567663E+00 -1.63404861E-16 -4.16896468E-01 -2.04567663E+00
 -1.63404861E-16 -4.16896468E-01 -2.04567663E+00 -1.63404861E-16 -4.16896468E-01
  2.04567663E+00  7.62865887E-17 -4.16896468E-01  2.04567663E+00  7.62865887E-17
 -4.16896468E-01  2.04567663E+00  7.62865887E-17 -4.16896468E-01  2.04567663E+00
  7.62865887E-17 -4.16896468E-01  2.04567663E+00  7.62865887E-17 -4.16896468E-01
  2.04567663E+00  7.62865887E-17 -4.16896468E-01  2.04567663E+00  7.62865887E-17
 -4.16896468E-01  2.04567663E+00  7.62865887E-17 -4.16896468E-01  2.04567663E+00
  7.62865887E-17 -4.16896468E-01  2.04567663E+00  7.62865887E-17 -4.16896468E-01
  2.04567663E+00  7.62865887E-17 -4.16896468E-01  2.04567663E+00  7.62865887E-17
 -4.16896468E-01  2.04567663E+00  7.62865887E-17 -4.16896468E-01  2.04567663E+00
  7.62865887E-17 -4.16896468E-01  2.04567663E+00  7.62865887E-17 -4.16896468E-01
  2.04567663E+00  7.62865887E-17 -4.16896468E-01  2.04567663E+00  7.62865887E-17
 -4.16896468E-01  2.04567663E+00  7.62865887E-17 -4.16896468E-01  2.04567663E+00
  7.62865887E-17 -4.16896468E-01  2.04567663E+00  7.62865887E-17 -4.16896468E-01
Overlap Matrix                             R   N=       19701
  1.00000000E+00  9.88789824E-01  1.00000000E+00  7.65788668E-01  8.02437260E-01
  1.00000000E+00  5.20528441E-01  5.45518090E-01  8.84947803E-01  1.00000000E+00
  2.57642059E-01  2.68874232E-01  5.37824280E-01  7.97030265E-01  1.00000000E+00
  1.33361707E-01  1.38886183E-01  2.99646661E-01  5.02224367E-01  8.52748691E-01
  1.00000000E+00  6.58951279E-02  6.85590198E-02  1.52799535E-01  2.71457004E-01
  5.51094014E-01  8.45285129E-01  1.00000000E+00  3.03508723E-02  3.15650618E-02
  7.12971311E-02  1.29874574E-01  2.87430790E-01  5.19270681E-01  8.22382286E-01
  1.00000000E+00 -2.19334285E-27 -1.49489925E-27  2.23374201E-27  3.18113297E-27
  4.25024630E-27  7.58925810E-30 -6.85629492E-28 -1.92878452E-29  1.00000000E+00
 -1.31815594E-32 -3.54801028E-33 -1.66624066E-32 -2.22335465E-32 -2.27949965E-32
  1.71017097E-32  3.83570822E-33 -4.62117996E-34  1.71360985E-58  1.00000000E+00
 -1.44258290E-17  1.51207235E-16  7.67507911E-17 -1.38820539E-16  6.32032685E-18
  1.57243709E-16 -6.68394783E-17 -6.04691371E-19  2.08698168E-42  5.52321611E-49
  1.00000000E+00 -8.64133219E-28 -1.11794263E-27  0.00000000E+00  7.74524674E-27
  0.00000000E+00 -5.67892956E-27  4.12344939E-27  0.00000000E+00  6.71867119E-01
  7.56674598E-59  6.81551888E-43  1.00000000E+00 -3.32501170E-33 -4.26461271E-33
  0.00000000E+00  1.47728858E-32  0.00000000E+00 -2.16633971E-32  0.00000000E+00
  0.00000000E+00  7.56674598E-59  6.71867119E-01  2.59991412E-48  0.00000000E+00
  1.00000000E+00 -2.99461029E-17 -3.84122164E-17  0.00000000E+00  1.33062326E-16
  1.96224333E-16  1.95126534E-16  1.41680642E-16  0.00000000E+00  6.81551888E-43
  2.59991412E-48  6.71867119E-01  0.00000000E+00  0.00000000E+00  1.00000000E+00
 -2.67829122E-28 -3.49357491E-28  8.34119155E-28 -1.44401732E-27  0.00000000E+00
  3.61799003E-27 -3.55631292E-27  0.00000000E+00  3.26198589E-01  8.89990477E-61
  8.01632156E-45  7.74766284E-01  0.00000000E+00  0.00000000E+00  1.00000000E+00
 -2.35182034E-33 -1.33269306E-33  3.18191206E-33 -5.50848891E-33 -1.02935496E-32
  1.38015367E-32 -1.35662572E-32 -9.35943565E-33  8.89990477E-61  3.26198589E-01
  3.05798400E-50  0.00000000E+00  7.74766284E-01  2.50003131E-48  0.00000000E+00
  1.00000000E+00 -1.19916651E-17 -1.20038320E-17  0.00000000E+00 -4.96160572E-17
  0.00000000E+00  2.48626381E-16 -1.22193981E-16 -8.43023018E-17  8.01632156E-45
  3.05798400E-50  3.26198589E-01  0.00000000E+00  2.50003131E-48  7.74766284E-01
  0.00000000E+00  0.00000000E+00  1.00000000E+00  2.30631431E-29  1.10982940E-28
 -2.59386947E-28  0.00000000E+00  9.92027567E-28  0.00000000E+00  0.00000000E+00
  0.00000000E+00  1.20360708E-01  1.66329313E-60  1.49816127E-44  3.78354967E-01
  0.00000000E+00  0.00000000E+00  7.57355904E-01  0.00000000E+00  0.00000000E+00
  1.00000000E+00 -4.02954616E-34  0.00000000E+00 -9.89482678E-34  0.00000000E+00
  0.00000000E+00  6.30342493E-33  0.00000000E+00  0.00000000E+00  1.66329313E-60
  1.20360708E-01  5.71503169E-50  0.00000000E+00  3.78354967E-01  0.00000000E+00
  0.00000000E+00  7.57355904E-01  0.00000000E+00  0.00000000E+00  1.00000000E+00
 -2.43534634E-20  3.97027880E-18 -8.91246764E-18  1.60465706E-17  0.00000000E+00
  5.67762043E-17  0.00000000E+00  0.00000000E+00  1.49816127E-44  5.71503169E-50
  1.20360708E-01  0.00000000E+00  0.00000000E+00  3.78354967E-01  0.00000000E+00
  0.00000000E+00  7.57355904E-01  0.00000000E+00  0.00000000E+00  1.00000000E+00
  7.36274790E-30  3.00204876E-29  0.00000000E+00  0.00000000E+00  0.00000000E+00
 -5.27800057E-28 -9.10786166E-28  0.00000000E+00  3.40426005E-02  0.00000000E+00
  1.63159193E-44  1.23021210E-01  0.00000000E+00  0.00000000E+00  3.24566647E-01
  0.00000000E+00  0.00000000E+00  7.05191137E-01  0.00000000E+00  0.00000000E+00
  1.00000000E+00 -7.66452356E-35  0.00000000E+00  0.00000000E+00 -4.74962050E-34
  0.00000000E+00 -2.01339743E-33 -3.47437350E-33  0.00000000E+00  0.00000000E+00
  3.40426005E-02  0.00000000E+00  0.00000000E+00  1.23021210E-01  0.00000000E+00
  0.00000000E+00  3.24566647E-01  0.00000000E+00  0.00000000E+00  7.05191137E-01
  0.00000000E+00  0.00000000E+00  1.00000000E+00  7.77620905E-19  1.03149610E-18
  0.00000000E+00  4.27807782E-18 -9.64817874E-18  0.00000000E+00  0.00000000E+00
  0.00000000E+00  1.63159193E-44  0.00000000E+00  3.40426005E-02  0.00000000E+00
  0.00000000E+00  1.23021210E-01  0.00000000E+00  0.00000000E+00  3.24566647E-01
  0.00000000E+00  0.00000000E+00  7.05191137E-01  6.25602955E-44  0.00000000E+00
  1.00000000E+00  0.00000000E+00  0.00000000E+00  0.00000000E+00  0.00000000E+00
  0.00000000E+00  0.00000000E+00  0.00000000E+00  0.00000000E+00  1.87330806E-27
 -1.69694500E-32  3.05694434E-16  0.00000000E+00  0.00000000E+00  0.00000000E+00
  0.00000000E+00  0.00000000E+00  0.00000000E+00  5.52147325E-28  2.10627489E-33
  3.79432753E-17  0.00000000E+00  0.00000000E+00  1.03672744E-17  1.00000000E+00
  1.33866069E-43 -1.26797102E-43  0.00000000E+00  0.00000000E+00  0.00000000E+00
  2.85071855E-42  1.55380430E-42  0.00000000E+00  2.64739146E-16 -1.23452435E-73
 -3.24466474E-27  0.00000000E+00  0.00000000E+00  0.00000000E+00  0.00000000E+00
  0.00000000E+00  0.00000000E+00  3.28598403E-17  1.02175328E-74 -9.56347220E-28
  8.97832299E-18  0.00000000E+00  0.00000000E+00  0.00000000E+00  1.00000000E+00
  7.84707937E-48 -4.83692559E-49  0.00000000E+00  0.00000000E+00  0.00000000E+00
  1.08746283E-47  5.92729302E-48  0.00000000E+00 -1.23452435E-73  2.64739146E-16
  2.93919495E-32  0.00000000E+00  0.00000000E+00  0.00000000E+00  0.00000000E+00
  0.00000000E+00  0.00000000E+00  1.02175328E-74  3.28598403E-17 -3.64817513E-33
  0.00000000E+00  8.97832299E-18  0.00000000E+00  1.19301804E-47  0.00000000E+00
  1.00000000E+00  0.00000000E+00  0.00000000E+00  0.00000000E+00  0.00000000E+00
  0.00000000E+00  0.00000000E+00  0.00000000E+00  0.00000000E+00 -3.24466474E-27
 -2.93919495E-32  0.00000000E+00  0.00000000E+00  0.00000000E+00  0.00000000E+00
  0.00000000E+00  0.00000000E+00  0.00000000E+00 -9.56347220E-28  3.64817513E-33
  0.00000000E+00  0.00000000E+00  0.00000000E+00  0.00000000E+00  0.00000000E+00
  0.00000000E+00 -2.06636785E-47  1.00000000E+00  1.71749112E-59  1.40773062E-59
  0.00000000E+00  0.00000000E+00  0.00000000E+00  3.16493337E-58  1.72506931E-58
  0.00000000E+00  2.93919495E-32 -3.24466474E-27 -1.23452435E-73  0.00000000E+00
  0.00000000E+00  0.00000000E+00  0.00000000E+00  0.00000000E+00  0.00000000E+00
 -3.64817513E-33 -9.56347220E-28  1.02175328E-74  0.00000000E+00  0.00000000E+00
  0.00000000E+00  0.00000000E+00  2.06636785E-47  0.00000000E+00  0.00000000E+00
  1.00000000E+00  0.00000000E+00  0.00000000E+00  0.00000000E+00  0.00000000E+00
  0.00000000E+00  0.00000000E+00  0.00000000E+00  0.00000000E+00  5.36779779E-30
 -7.52305088E-33 -1.93188960E-16 -4.01338136E-27 -1.53098349E-32  0.00000000E+00
 -2.49712248E-27 -9.52576631E-33  1.71600950E-16  0.00000000E+00  0.00000000E+00
 -7.24933892E-17  0.00000000E+00 -1.21318607E-33 -2.18548174E-17  6.21705002E-01
  0.00000000E+00  0.00000000E+00  0.00000000E+00  0.00000000E+00  1.00000000E+00
 -3.25724587E-45  2.04343620E-44  0.00000000E+00  0.00000000E+00 -1.86527618E-42
  0.00000000E+00  1.03914624E-42  5.43256252E-43 -1.67306547E-16  0.00000000E+00
 -9.29729849E-30  0.00000000E+00  0.00000000E+00  6.95138042E-27  1.48610782E-16
  1.93682966E-74  4.32514301E-27 -6.27811167E-17  0.00000000E+00  0.00000000E+00
 -1.89268270E-17  0.00000000E+00  0.00000000E+00  0.00000000E+00  6.21705002E-01
  0.00000000E+00  0.00000000E+00  0.00000000E+00  0.00000000E+00  1.00000000E+00
  9.20942346E-50 -1.81016984E-48  0.00000000E+00  0.00000000E+00  7.11546395E-48
  0.00000000E+00  0.00000000E+00  0.00000000E+00  0.00000000E+00 -1.67306547E-16
  1.30303064E-32  0.00000000E+00  0.00000000E+00  2.65174119E-32  1.93682966E-74
  1.48610782E-16  1.64991112E-32  0.00000000E+00 -6.27811167E-17  0.00000000E+00
  0.00000000E+00 -1.89268270E-17  2.10129992E-33  0.00000000E+00  0.00000000E+00
  6.21705002E-01  0.00000000E+00  0.00000000E+00  0.00000000E+00  0.00000000E+00
  1.00000000E+00  0.00000000E+00  0.00000000E+00  0.00000000E+00  0.00000000E+00
  0.00000000E+00  0.00000000E+00  0.00000000E+00  0.00000000E+00 -9.29729849E-30
 -1.30303064E-32  0.00000000E+00  6.95138042E-27 -2.65174119E-32  0.00000000E+00
  4.32514301E-27 -1.64991112E-32  0.00000000E+00  0.00000000E+00  0.00000000E+00
  0.00000000E+00  0.00000000E+00 -2.10129992E-33  0.00000000E+00  0.00000000E+00
  0.00000000E+00  0.00000000E+00  6.21705002E-01  0.00000000E+00  0.00000000E+00
  0.00000000E+00  0.00000000E+00  1.00000000E+00 -3.61626936E-61  0.00000000E+00
  0.00000000E+00  0.00000000E+00 -2.07087256E-58  0.00000000E+00  0.00000000E+00
  0.00000000E+00  1.30303064E-32 -9.29729849E-30  0.00000000E+00  2.65174119E-32
  6.95138042E-27  0.00000000E+00  1.64991112E-32  4.32514301E-27  1.93682966E-74
  0.00000000E+00  0.00000000E+00  0.00000000E+00  2.10129992E-33  0.00000000E+00
  0.00000000E+00  0.00000000E+00  0.00000000E+00  0.00000000E+00  0.00000000E+00
  6.21705002E-01  0.00000000E+00  0.00000000E+00  0.00000000E+00  0.00000000E+00
  1.00000000E+00  0.00000000E+00  0.00000000E+00  0.00000000E+00  0.00000000E+00
  0.00000000E+00  0.00000000E+00  0.00000000E+00  0.00000000E+00 -1.51397534E-29
 -6.89735940E-38  4.80098447E-17  2.19128180E-27  0.00000000E+00  0.00000000E+00
  0.00000000E+00  0.00000000E+00  0.00000000E+00  0.00000000E+00  6.03671683E-33
  0.00000000E+00  0.00000000E+00  2.33327055E-33  0.00000000E+00  1.81090854E-01
  0.00000000E+00  0.00000000E+00  0.00000000E+00 -7.02726364E-59  6.17324292E-01
 -4.45964026E-43  0.00000000E+00  0.00000000E+00  0.00000000E+00  1.00000000E+00
  0.00000000E+00  0.00000000E+00  0.00000000E+00  0.00000000E+00  5.14399419E-43
  0.00000000E+00  0.00000000E+00  3.60949642E-43  4.15777451E-17  1.64222173E-77
  2.62228221E-29  0.00000000E+00  0.00000000E+00 -3.79541140E-27  0.00000000E+00
  0.00000000E+00  0.00000000E+00  0.00000000E+00  0.00000000E+00  0.00000000E+00
  0.00000000E+00  0.00000000E+00  0.00000000E+00  0.00000000E+00  1.81090854E-01
  6.08578883E-59  0.00000000E+00  0.00000000E+00 -4.45964026E-43  6.17324292E-01
  0.00000000E+00 -7.72432351E-43  0.00000000E+00  0.00000000E+00  1.00000000E+00
  2.32953765E-52 -1.20639124E-50  0.00000000E+00  0.00000000E+00  0.00000000E+00
  0.00000000E+00  0.00000000E+00  1.37691361E-48  1.64222173E-77  4.15777451E-17
  1.19465769E-37  0.00000000E+00  0.00000000E+00  0.00000000E+00  0.00000000E+00
  0.00000000E+00  0.00000000E+00  0.00000000E+00  0.00000000E+00 -1.04559003E-32
  0.00000000E+00  0.00000000E+00 -4.04134314E-33  0.00000000E+00  6.08578883E-59
  1.81090854E-01  0.00000000E+00  0.00000000E+00  0.00000000E+00  0.00000000E+00
  6.17324292E-01  0.00000000E+00 -7.72432351E-43  0.00000000E+00  0.00000000E+00
  1.00000000E+00  0.00000000E+00  0.00000000E+00  0.00000000E+00  0.00000000E+00
  0.00000000E+00  0.00000000E+00  0.00000000E+00  0.00000000E+00  2.62228221E-29
 -1.19465769E-37  0.00000000E+00 -3.79541140E-27  0.00000000E+00  0.00000000E+00
  0.00000000E+00  0.00000000E+00  0.00000000E+00  0.00000000E+00  1.04559003E-32
  0.00000000E+00  0.00000000E+00  4.04134314E-33  0.00000000E+00  0.00000000E+00
  0.00000000E+00  0.00000000E+00  1.81090854E-01  0.00000000E+00  0.00000000E+00
 -7.72432351E-43  0.00000000E+00  6.17324292E-01  0.00000000E+00  0.00000000E+00
  0.00000000E+00  0.00000000E+00  1.00000000E+00  0.00000000E+00  0.00000000E+00
  0.00000000E+00  0.00000000E+00  0.00000000E+00  0.00000000E+00  6.27667858E-59
  4.00734604E-59  1.19465769E-37  2.62228221E-29  1.64222173E-77  0.00000000E+00
 -3.79541140E-27  0.00000000E+00  0.00000000E+00  0.00000000E+00  0.00000000E+00
 -1.04559003E-32  0.00000000E+00  0.00000000E+00 -4.04134314E-33  0.00000000E+00
  0.00000000E+00 -7.02726364E-59  0.00000000E+00  0.00000000E+00  0.00000000E+00
  1.81090854E-01  0.00000000E+00  0.00000000E+00 -7.72432351E-43  0.00000000E+00
  6.17324292E-01  0.00000000E+00  0.00000000E+00  0.00000000E+00  0.00000000E+00
  1.00000000E+00  0.00000000E+00  0.00000000E+00  0.00000000E+00  0.00000000E+00
  0.00000000E+00  0.00000000E+00  0.00000000E+00  0.00000000E+00  1.98845764E-33
  5.90045971E-34 -9.21335218E-18  4.88620905E-28  1.86394083E-33 -3.35777729E-17
  0.00000000E+00  3.76462399E-33 -6.78174368E-17  1.32130817E-27  5.04039068E-33
  0.00000000E+00  9.46307926E-28  0.00000000E+00 -6.50297855E-17  2.61041748E-02
  0.00000000E+00  0.00000000E+00  0.00000000E+00  0.00000000E+00  1.36951369E-01
  0.00000000E+00 -3.08476882E-49  0.00000000E+00  0.00000000E+00  5.18562344E-01
  0.00000000E+00  0.00000000E+00  0.00000000E+00  0.00000000E+00  1.00000000E+00
  6.13824551E-47  8.80996861E-45  0.00000000E+00  0.00000000E+00  0.00000000E+00
  0.00000000E+00  0.00000000E+00  0.00000000E+00 -7.97899705E-18  0.00000000E+00
 -3.44410967E-33 -2.90792043E-17 -2.24283684E-75 -8.46316233E-28 -5.87316231E-17
  0.00000000E+00  0.00000000E+00  0.00000000E+00  0.00000000E+00 -2.28857289E-27
 -5.63174462E-17  0.00000000E+00 -1.63905341E-27  0.00000000E+00  2.61041748E-02
  0.00000000E+00  0.00000000E+00  0.00000000E+00  0.00000000E+00  1.36951369E-01
  0.00000000E+00  0.00000000E+00 -5.34297633E-49  0.00000000E+00  5.18562344E-01
  0.00000000E+00  0.00000000E+00  0.00000000E+00  0.00000000E+00  1.00000000E+00
  2.34305400E-52  3.36073632E-50  0.00000000E+00  0.00000000E+00  0.00000000E+00
  4.84069666E-49  0.00000000E+00  0.00000000E+00  0.00000000E+00 -7.97899705E-18
 -1.02198960E-33 -2.24283684E-75 -2.90792043E-17 -3.22844022E-33  0.00000000E+00
 -5.87316231E-17 -6.52052002E-33  0.00000000E+00  0.00000000E+00 -8.73021274E-33
  0.00000000E+00 -5.63174462E-17  0.00000000E+00  0.00000000E+00  0.00000000E+00
  2.61041748E-02  0.00000000E+00  0.00000000E+00 -3.08476882E-49  0.00000000E+00
  1.36951369E-01  5.34297633E-49  0.00000000E+00  0.00000000E+00  0.00000000E+00
  5.18562344E-01  0.00000000E+00  0.00000000E+00  0.00000000E+00  0.00000000E+00
  1.00000000E+00  0.00000000E+00  0.00000000E+00  0.00000000E+00  0.00000000E+00
  0.00000000E+00  0.00000000E+00  0.00000000E+00  0.00000000E+00 -3.44410967E-33
  1.02198960E-33  0.00000000E+00 -8.46316233E-28  3.22844022E-33  0.00000000E+00
  0.00000000E+00  6.52052002E-33  0.00000000E+00 -2.28857289E-27  8.73021274E-33
  0.00000000E+00 -1.63905341E-27  0.00000000E+00  0.00000000E+00  0.00000000E+00
  0.00000000E+00  0.00000000E+00  2.61041748E-02  0.00000000E+00  0.00000000E+00
  0.00000000E+00  5.34297633E-49  1.36951369E-01  0.00000000E+00  0.00000000E+00
  0.00000000E+00  0.00000000E+00  5.18562344E-01  0.00000000E+00  0.00000000E+00
  0.00000000E+00  0.00000000E+00  1.00000000E+00 -1.89130918E-61  9.78103000E-61
  0.00000000E+00  0.00000000E+00  0.00000000E+00  0.00000000E+00  0.00000000E+00
  0.00000000E+00 -1.02198960E-33 -3.44410967E-33  0.00000000E+00 -3.22844022E-33
 -8.46316233E-28 -2.24283684E-75 -6.52052002E-33  0.00000000E+00  0.00000000E+00
 -8.73021274E-33 -2.28857289E-27  0.00000000E+00  0.00000000E+00 -1.63905341E-27
  0.00000000E+00  0.00000000E+00  0.00000000E+00  0.00000000E+00  0.00000000E+00
  2.61041748E-02  0.00000000E+00 -5.34297633E-49  0.00000000E+00  0.00000000E+00
  1.36951369E-01  0.00000000E+00  0.00000000E+00  0.00000000E+00  0.00000000E+00
  5.18562344E-01  0.00000000E+00  0.00000000E+00  0.00000000E+00  0.00000000E+00
  1.00000000E+00  2.46519033E-32  1.87778170E-33  0.00000000E+00  0.00000000E+00
 -1.97215226E-31  0.00000000E+00  0.00000000E+00  0.00000000E+00 -7.96229918E-43
 -3.03662532E-48  0.00000000E+00  0.00000000E+00  0.00000000E+00  1.11022302E-16
  0.00000000E+00 -3.57063798E-48  0.00000000E+00  0.00000000E+00  1.28538109E-48
  0.00000000E+00  0.00000000E+00  0.00000000E+00 -6.93889390E-18  0.00000000E+00
  0.00000000E+00  0.00000000E+00  0.00000000E+00  0.00000000E+00 -3.89971771E-16
  0.00000000E+00  2.49967055E-32  0.00000000E+00  0.00000000E+00  0.00000000E+00
  0.00000000E+00  8.93254531E-33  0.00000000E+00  0.00000000E+00 -4.45545413E-17
  3.74327304E-28  1.42794534E-33  0.00000000E+00  1.14394246E-74  1.00000000E+00
 -5.38098610E-43  0.00000000E+00  0.00000000E+00 -7.17464814E-43  2.86985925E-42
  0.00000000E+00  0.00000000E+00  0.00000000E+00  0.00000000E+00 -3.60888545E-59
  1.30023801E-42 -1.11022302E-16  0.00000000E+00  0.00000000E+00  0.00000000E+00
  0.00000000E+00  0.00000000E+00  0.00000000E+00  0.00000000E+00  0.00000000E+00
  0.00000000E+00  0.00000000E+00  0.00000000E+00  0.00000000E+00  0.00000000E+00
  0.00000000E+00  0.00000000E+00  0.00000000E+00  0.00000000E+00 -3.67668912E-16
  0.00000000E+00  0.00000000E+00  1.02048623E-32  0.00000000E+00  0.00000000E+00
  0.00000000E+00  0.00000000E+00  3.64669635E-33 -5.29378749E-28 -4.20064244E-17
 -7.00518831E-75  1.52818482E-28  5.82956245E-34  0.00000000E+00  1.00000000E+00
 -1.71056941E-48  0.00000000E+00  0.00000000E+00  0.00000000E+00  2.18952885E-47
  0.00000000E+00  0.00000000E+00  0.00000000E+00 -3.60888545E-59  0.00000000E+00
  4.95878839E-48  0.00000000E+00 -1.11022302E-16  0.00000000E+00  0.00000000E+00
  0.00000000E+00  5.83082741E-48  0.00000000E+00  0.00000000E+00 -2.09901853E-48
  0.00000000E+00  0.00000000E+00  0.00000000E+00  0.00000000E+00  0.00000000E+00
  0.00000000E+00  0.00000000E+00  0.00000000E+00 -3.53506799E-32  0.00000000E+00
 -3.67668912E-16 -1.02048623E-32  0.00000000E+00 -1.26325267E-32  0.00000000E+00
  0.00000000E+00 -3.64669635E-33  0.00000000E+00 -2.01941967E-33 -7.00518831E-75
 -4.20064244E-17 -5.82956245E-34  1.52818482E-28  0.00000000E+00  0.00000000E+00
  1.00000000E+00  0.00000000E+00  0.00000000E+00  0.00000000E+00  0.00000000E+00
  0.00000000E+00  0.00000000E+00  0.00000000E+00  0.00000000E+00  1.02792840E-42
 -3.92026644E-48  0.00000000E+00  0.00000000E+00  0.00000000E+00  0.00000000E+00
  0.00000000E+00 -4.60967381E-48  0.00000000E+00  0.00000000E+00  1.65941985E-48
  0.00000000E+00  0.00000000E+00  0.00000000E+00  0.00000000E+00  0.00000000E+00
  0.00000000E+00  0.00000000E+00  0.00000000E+00  0.00000000E+00  0.00000000E+00
  0.00000000E+00  3.22706080E-32 -2.90667797E-16  0.00000000E+00  0.00000000E+00
  0.00000000E+00  1.15318664E-32  0.00000000E+00  0.00000000E+00  0.00000000E+00
 -4.83254471E-28  1.84346951E-33 -3.32089944E-17  0.00000000E+00  0.00000000E+00
  0.00000000E+00  0.00000000E+00  1.00000000E+00 -4.21435929E-74  0.00000000E+00
  0.00000000E+00  0.00000000E+00 -5.63060224E-73  0.00000000E+00  0.00000000E+00
  0.00000000E+00  3.92026644E-48  1.02792840E-42  1.14122978E-58  0.00000000E+00
  0.00000000E+00  0.00000000E+00  4.60967381E-48  0.00000000E+00  0.00000000E+00
 -1.65941985E-48  0.00000000E+00  0.00000000E+00  0.00000000E+00  0.00000000E+00
  0.00000000E+00  0.00000000E+00  0.00000000E+00  0.00000000E+00  0.00000000E+00
  0.00000000E+00  0.00000000E+00 -3.22706080E-32  0.00000000E+00  0.00000000E+00
 -2.90667797E-16  0.00000000E+00 -1.15318664E-32  0.00000000E+00  0.00000000E+00
  0.00000000E+00  0.00000000E+00 -1.84346951E-33 -4.83254471E-28  0.00000000E+00
 -3.32089944E-17  0.00000000E+00  0.00000000E+00  0.00000000E+00  0.00000000E+00
  1.00000000E+00  6.27781712E-43  0.00000000E+00  0.00000000E+00  2.15239444E-42
 -4.30478888E-42  1.43492963E-42  0.00000000E+00  0.00000000E+00  0.00000000E+00
 -1.39771532E-58 -7.96545956E-59  2.22044605E-16  0.00000000E+00  0.00000000E+00
  5.55111512E-17  0.00000000E+00  0.00000000E+00  0.00000000E+00  0.00000000E+00
  0.00000000E+00  6.93889390E-18  0.00000000E+00  0.00000000E+00  0.00000000E+00
  0.00000000E+00  0.00000000E+00  0.00000000E+00  0.00000000E+00  0.00000000E+00
  2.46519033E-32  0.00000000E+00  0.00000000E+00  3.95232617E-32  0.00000000E+00
  0.00000000E+00  0.00000000E+00  0.00000000E+00  1.41235942E-32 -8.07147915E-43
  0.00000000E+00  9.04365922E-75 -5.91863435E-28  2.25777983E-33  0.00000000E+00
 -2.22044605E-16  0.00000000E+00  0.00000000E+00  0.00000000E+00  1.00000000E+00
 -2.05268330E-48  0.00000000E+00  0.00000000E+00  0.00000000E+00  3.28429328E-47
  0.00000000E+00  0.00000000E+00  0.00000000E+00  1.39771532E-58  0.00000000E+00
  3.03858168E-64  0.00000000E+00 -2.22044605E-16  0.00000000E+00  0.00000000E+00
 -5.55111512E-17 -6.07716336E-64  0.00000000E+00  0.00000000E+00  0.00000000E+00