Jobname.Temp
SP        U                             non-standard        
Number of atoms                            I                1
Charge                                     I                0
Multiplicity                               I                3
Number of electrons                        I                8
Number of alpha electrons                  I                5
Number of beta electrons                   I                3
Atomic numbers                             I   N=           1
           8
Current cartesian coordinates              R   N=           3
  0.00000000E+00  0.00000000E+00  0.00000000E+00
Nuclear charges                            R   N=           1
  8.00000000E+00
Number of basis functions                  I               35
Number of contracted shells                I               13
Number of primitive shells                 I               22
Highest angular momentum                   I                3
Largest degree of contraction              I                6
Shell types                                I   N=          13
           0           0           0           0           0           0
           1           1           1           1          -2          -2
          -3
Number of primitives per shell             I   N=          13
           6           2           1           1           1           1
           4           1           1           1           1           1
           1
Shell to atom map                          I   N=          13
           1           1           1           1           1           1
           1           1           1           1           1           1
           1
Primitive exponents                        R   N=          22
  2.70323826E+04  4.05238714E+03  9.22327227E+02  2.61240710E+02  8.53546414E+01
  3.10350352E+01  1.22608607E+01  4.99870760E+00  1.17031082E+00  4.64747410E-01
  1.85045364E-01  6.16817879E-02  6.32749548E+01  1.46270494E+01  4.45012235E+00
  1.52757996E+00  5.29351179E-01  1.74784213E-01  5.82614042E-02  2.31400000E+00
  6.45000000E-01  1.42800000E+00
Contraction coefficients                   R   N=          22
  5.72273352E-04  4.43532335E-03  2.30201077E-02  9.28224907E-02  2.93785000E-01
  6.74016045E-01  6.38399370E-01  3.95345871E-01  1.00000000E+00  1.00000000E+00
  1.00000000E+00  1.00000000E+00  1.20183322E-02  8.30054218E-02  3.19917439E-01
  7.07155429E-01  1.00000000E+00  1.00000000E+00  1.00000000E+00  1.00000000E+00
  1.00000000E+00  1.00000000E+00
Coordinates of each shell                  R   N=          39
  0.00000000E+00  0.00000000E+00  0.00000000E+00  0.00000000E+00  0.00000000E+00
  0.00000000E+00  0.00000000E+00  0.00000000E+00  0.00000000E+00  0.00000000E+00
  0.00000000E+00  0.00000000E+00  0.00000000E+00  0.00000000E+00  0.00000000E+00
  0.00000000E+00  0.00000000E+00  0.00000000E+00  0.00000000E+00  0.00000000E+00
  0.00000000E+00  0.00000000E+00  0.00000000E+00  0.00000000E+00  0.00000000E+00
  0.00000000E+00  0.00000000E+00  0.00000000E+00  0.00000000E+00  0.00000000E+00
  0.00000000E+00  0.00000000E+00  0.00000000E+00  0.00000000E+00  0.00000000E+00
  0.00000000E+00  0.00000000E+00  0.00000000E+00  0.00000000E+00
Overlap Matrix                             R   N=         630
  1.00000000E+00  6.81549960E-01  1.00000000E+00  1.91928927E-01  5.44963444E-01
  1.00000000E+00  9.88317658E-02  3.11467258E-01  8.56808580E-01  1.00000000E+00
  5.01197784E-02  1.65386351E-01  5.69048658E-01  8.57539369E-01  1.00000000E+00
  2.21013289E-02  7.44978791E-02  2.88055699E-01  5.15899953E-01  8.05927449E-01
  1.00000000E+00  0.00000000E+00  0.00000000E+00  0.00000000E+00  0.00000000E+00
  0.00000000E+00  0.00000000E+00  1.00000000E+00  0.00000000E+00  0.00000000E+00
  0.00000000E+00  0.00000000E+00  0.00000000E+00  0.00000000E+00  0.00000000E+00
  1.00000000E+00  0.00000000E+00  0.00000000E+00  0.00000000E+00  0.00000000E+00
  0.00000000E+00  0.00000000E+00  0.00000000E+00  0.00000000E+00  1.00000000E+00
  0.00000000E+00  0.00000000E+00  0.00000000E+00  0.00000000E+00  0.00000000E+00
  0.00000000E+00  6.07909728E-01  0.00000000E+00  0.00000000E+00  1.00000000E+00
  0.00000000E+00  0.00000000E+00  0.00000000E+00  0.00000000E+00  0.00000000E+00
  0.00000000E+00  0.00000000E+00  6.07909728E-01  0.00000000E+00  0.00000000E+00
  1.00000000E+00  0.00000000E+00  0.00000000E+00  0.00000000E+00  0.00000000E+00
  0.00000000E+00  0.00000000E+00  0.00000000E+00  0.00000000E+00  6.07909728E-01
  0.00000000E+00  0.00000000E+00  1.00000000E+00  0.00000000E+00  0.00000000E+00
  0.00000000E+00  0.00000000E+00  0.00000000E+00  0.00000000E+00  2.33625581E-01
  0.00000000E+00  0.00000000E+00  6.93812570E-01  0.00000000E+00  0.00000000E+00
  1.00000000E+00  0.00000000E+00  0.00000000E+00  0.00000000E+00  0.00000000E+00
  0.00000000E+00  0.00000000E+00  0.00000000E+00  2.33625581E-01  0.00000000E+00
  0.00000000E+00  6.93812570E-01  0.00000000E+00  0.00000000E+00  1.00000000E+00
  0.00000000E+00  0.00000000E+00  0.00000000E+00  0.00000000E+00  0.00000000E+00
  0.00000000E+00  0.00000000E+00  0.00000000E+00  2.33625581E-01  0.00000000E+00
  0.00000000E+00  6.93812570E-01  0.00000000E+00  0.00000000E+00  1.00000000E+00
  0.00000000E+00  0.00000000E+00  0.00000000E+00  0.00000000E+00  0.00000000E+00
  0.00000000E+00  6.96345847E-02  0.00000000E+00  0.00000000E+00  2.76218849E-01
  0.00000000E+00  0.00000000E+00  6.97953644E-01  0.00000000E+00  0.00000000E+00
  1.00000000E+00  0.00000000E+00  0.00000000E+00  0.00000000E+00  0.00000000E+00
  0.00000000E+00  0.00000000E+00  0.00000000E+00  6.96345847E-02  0.00000000E+00
  0.00000000E+00  2.76218849E-01  0.00000000E+00  0.00000000E+00  6.97953644E-01
  0.00000000E+00  0.00000000E+00  1.00000000E+00  0.00000000E+00  0.00000000E+00
  0.00000000E+00  0.00000000E+00  0.00000000E+00  0.00000000E+00  0.00000000E+00
  0.00000000E+00  6.96345847E-02  0.00000000E+00  0.00000000E+00  2.76218849E-01
  0.00000000E+00  0.00000000E+00  6.97953644E-01  0.00000000E+00  0.00000000E+00
  1.00000000E+00  0.00000000E+00  0.00000000E+00  0.00000000E+00  0.00000000E+00
  0.00000000E+00  0.00000000E+00  0.00000000E+00  0.00000000E+00  0.00000000E+00
  0.00000000E+00  0.00000000E+00  0.00000000E+00  0.00000000E+00  0.00000000E+00
  0.00000000E+00  0.00000000E+00  0.00000000E+00  0.00000000E+00  1.00000000E+00
  0.00000000E+00  0.00000000E+00  0.00000000E+00  0.00000000E+00  0.00000000E+00
  0.00000000E+00  0.00000000E+00  0.00000000E+00  0.00000000E+00  0.00000000E+00
  0.00000000E+00  0.00000000E+00  0.00000000E+00  0.00000000E+00  0.00000000E+00
  0.00000000E+00  0.00000000E+00  0.00000000E+00  0.00000000E+00  1.00000000E+00
  0.00000000E+00  0.00000000E+00  0.00000000E+00  0.00000000E+00  0.00000000E+00
  0.00000000E+00  0.00000000E+00  0.00000000E+00  0.00000000E+00  0.00000000E+00
  0.00000000E+00  0.00000000E+00  0.00000000E+00  0.00000000E+00  0.00000000E+00
  0.00000000E+00  0.00000000E+00  0.00000000E+00  0.00000000E+00  0.00000000E+00
  1.00000000E+00  0.00000000E+00  0.00000000E+00  0.00000000E+00  0.00000000E+00
  0.00000000E+00  0.00000000E+00  0.00000000E+00  0.00000000E+00  0.00000000E+00
  0.00000000E+00  0.00000000E+00  0.00000000E+00  0.00000000E+00  0.00000000E+00
  0.00000000E+00  0.00000000E+00  0.00000000E+00  0.00000000E+00  0.00000000E+00
  0.00000000E+00  0.00000000E+00  1.00000000E+00  0.00000000E+00  0.00000000E+00
  0.00000000E+00  0.00000000E+00  0.00000000E+00  0.00000000E+00  0.00000000E+00
  0.00000000E+00  0.00000000E+00  0.00000000E+00  0.00000000E+00  0.00000000E+00
  0.00000000E+00  0.00000000E+00  0.00000000E+00  0.00000000E+00  0.00000000E+00
  0.00000000E+00  0.00000000E+00  0.00000000E+00  0.00000000E+00  0.00000000E+00
  1.00000000E+00  0.00000000E+00  0.00000000E+00  0.00000000E+00  0.00000000E+00
  0.00000000E+00  0.00000000E+00  0.00000000E+00  0.00000000E+00  0.00000000E+00
  0.00000000E+00  0.00000000E+00  0.00000000E+00  0.00000000E+00  0.00000000E+00
  0.00000000E+00  0.00000000E+00  0.00000000E+00  0.00000000E+00  5.11638218E-01
  0.00000000E+00  0.00000000E+00  0.00000000E+00  0.00000000E+00  1.00000000E+00
  0.00000000E+00  0.00000000E+00  0.00000000E+00  0.00000000E+00  0.00000000E+00
  0.00000000E+00  0.00000000E+00  0.00000000E+00  0.00000000E+00  0.00000000E+00
  0.00000000E+00  0.00000000E+00  0.00000000E+00  0.00000000E+00  0.00000000E+00
  0.00000000E+00  0.00000000E+00  0.00000000E+00  0.00000000E+00  5.11638218E-01
  0.00000000E+00  0.00000000E+00  0.00000000E+00  0.00000000E+00  1.00000000E+00
  0.00000000E+00  0.00000000E+00  0.00000000E+00  0.00000000E+00  0.00000000E+00
  0.00000000E+00  0.00000000E+00  0.00000000E+00  0.00000000E+00  0.00000000E+00
  0.00000000E+00  0.00000000E+00  0.00000000E+00  0.00000000E+00  0.00000000E+00
  0.00000000E+00  0.00000000E+00  0.00000000E+00  0.00000000E+00  0.00000000E+00
  5.11638218E-01  0.00000000E+00  0.00000000E+00  0.00000000E+00  0.00000000E+00
  1.00000000E+00  0.00000000E+00  0.00000000E+00  0.00000000E+00  0.00000000E+00
  0.00000000E+00  0.00000000E+00  0.00000000E+00  0.00000000E+00  0.00000000E+00
  0.00000000E+00  0.00000000E+00  0.00000000E+00  0.00000000E+00  0.00000000E+00
  0.00000000E+00  0.00000000E+00  0.00000000E+00  0.00000000E+00  0.00000000E+00
  0.00000000E+00  0.00000000E+00  5.11638218E-01  0.00000000E+00  0.00000000E+00
  0.00000000E+00  0.00000000E+00  1.00000000E+00  0.00000000E+00  0.00000000E+00
  0.00000000E+00  0.00000000E+00  0.00000000E+00  0.00000000E+00  0.00000000E+00
  0.00000000E+00  0.00000000E+00  0.00000000E+00  0.00000000E+00  0.00000000E+00
  0.00000000E+00  0.00000000E+00  0.00000000E+00  0.00000000E+00  0.00000000E+00
  0.00000000E+00  0.00000000E+00  0.00000000E+00  0.00000000E+00  0.00000000E+00
  5.11638218E-01  0.00000000E+00  0.00000000E+00  0.00000000E+00  0.00000000E+00
  1.00000000E+00  0.00000000E+00  0.00000000E+00  0.00000000E+00  0.00000000E+00
  0.00000000E+00  0.00000000E+00  0.00000000E+00  0.00000000E+00 -1.11022302E-16
  0.00000000E+00  0.00000000E+00 -1.11022302E-16  0.00000000E+00  0.00000000E+00
 -5.55111512E-17  0.00000000E+00  0.00000000E+00  0.00000000E+00  0.00000000E+00
  0.00000000E+00  0.00000000E+00  0.00000000E+00  0.00000000E+00  0.00000000E+00
  0.00000000E+00  0.00000000E+00  0.00000000E+00  0.00000000E+00  1.00000000E+00
  0.00000000E+00  0.00000000E+00  0.00000000E+00  0.00000000E+00  0.00000000E+00
  0.00000000E+00  0.00000000E+00  0.00000000E+00  0.00000000E+00  1.11022302E-16
  0.00000000E+00  0.00000000E+00  5.55111512E-17  0.00000000E+00  0.00000000E+00
  0.00000000E+00  0.00000000E+00  0.00000000E+00  0.00000000E+00  0.00000000E+00
  0.00000000E+00  0.00000000E+00  0.00000000E+00  0.00000000E+00  0.00000000E+00
  0.00000000E+00  0.00000000E+00  0.00000000E+00  0.00000000E+00  1.00000000E+00
  0.00000000E+00  0.00000000E+00  0.00000000E+00  0.00000000E+00  0.00000000E+00
  0.00000000E+00  0.00000000E+00  0.00000000E+00  0.00000000E+00  0.00000000E+00
  1.11022302E-16  0.00000000E+00  0.00000000E+00  5.55111512E-17  0.00000000E+00
  0.00000000E+00  0.00000000E+00  0.00000000E+00  0.00000000E+00  0.00000000E+00
  0.00000000E+00  0.00000000E+00  0.00000000E+00  0.00000000E+00  0.00000000E+00
  0.00000000E+00  0.00000000E+00  0.00000000E+00  0.00000000E+00  0.00000000E+00
  1.00000000E+00  0.00000000E+00  0.00000000E+00  0.00000000E+00  0.00000000E+00
  0.00000000E+00  0.00000000E+00  0.00000000E+00  0.00000000E+00  0.00000000E+00
  0.00000000E+00  0.00000000E+00  0.00000000E+00  0.00000000E+00  0.00000000E+00
  0.00000000E+00  0.00000000E+00  0.00000000E+00  0.00000000E+00  0.00000000E+00
  0.00000000E+00  0.00000000E+00  0.00000000E+00  0.00000000E+00  0.00000000E+00
  0.00000000E+00  0.00000000E+00  0.00000000E+00  0.00000000E+00  0.00000000E+00
  0.00000000E+00  0.00000000E+00  1.00000000E+00  0.00000000E+00  0.00000000E+00
  0.00000000E+00  0.00000000E+00  0.00000000E+00  0.00000000E+00  0.00000000E+00
  0.00000000E+00  0.00000000E+00  0.00000000E+00  0.00000000E+00  0.00000000E+00
  0.00000000E+00  0.00000000E+00  0.00000000E+00  0.00000000E+00  0.00000000E+00
  0.00000000E+00  0.00000000E+00  0.00000000E+00  0.00000000E+00  0.00000000E+00
  0.00000000E+00  0.00000000E+00  0.00000000E+00  0.00000000E+00  0.00000000E+00
  0.00000000E+00  0.00000000E+00  0.00000000E+00  0.00000000E+00  0.00000000E+00
  1.00000000E+00  0.00000000E+00  0.00000000E+00  0.00000000E+00  0.00000000E+00
  0.00000000E+00  0.00000000E+00  0.00000000E+00  0.00000000E+00  0.00000000E+00
  0.00000000E+00  0.00000000E+00  0.00000000E+00  0.00000000E+00  0.00000000E+00
  0.00000000E+00  2.77555756E-17  0.00000000E+00  0.00000000E+00  0.00000000E+00
  0.00000000E+00  0.00000000E+00  0.00000000E+00  0.00000000E+00  0.00000000E+00
  0.00000000E+00  0.00000000E+00  0.00000000E+00  0.00000000E+00  0.00000000E+00
 -3.33066907E-16  0.00000000E+00  0.00000000E+00  0.00000000E+00  1.00000000E+00
  0.00000000E+00  0.00000000E+00  0.00000000E+00  0.00000000E+00  0.00000000E+00
  0.00000000E+00  0.00000000E+00  0.00000000E+00  0.00000000E+00  0.00000000E+00
  0.00000000E+00  0.00000000E+00  0.00000000E+00  0.00000000E+00  0.00000000E+00
  0.00000000E+00 -2.77555756E-17  0.00000000E+00  0.00000000E+00  0.00000000E+00
  0.00000000E+00  0.00000000E+00  0.00000000E+00  0.00000000E+00  0.00000000E+00
  0.00000000E+00  0.00000000E+00  0.00000000E+00  0.00000000E+00  0.00000000E+00
  3.33066907E-16  0.00000000E+00  0.00000000E+00  0.00000000E+00  1.00000000E+00
Core Hamiltonian Matrix                    R   N=         630
 -2.14965350E+01 -2.99064346E+01 -2.57223031E+01 -1.07899374E+01 -1.34542993E+01
 -1.20550736E+01 -5.68886073E+00 -7.79333303E+00 -9.03493407E+00 -8.00586986E+00
 -2.91259584E+00 -4.16828895E+00 -5.70750517E+00 -5.89954504E+00 -5.21403514E+00
 -1.28982587E+00 -1.88442970E+00 -2.83555968E+00 -3.29466105E+00 -3.50182827E+00
 -3.07805589E+00  0.00000000E+00  0.00000000E+00  0.00000000E+00  0.00000000E+00
  0.00000000E+00  0.00000000E+00 -7.83204127E+00  0.00000000E+00  0.00000000E+00
  0.00000000E+00  0.00000000E+00  0.00000000E+00  0.00000000E+00  0.00000000E+00
 -7.83204127E+00  0.00000000E+00  0.00000000E+00  0.00000000E+00  0.00000000E+00
  0.00000000E+00  0.00000000E+00  0.00000000E+00  0.00000000E+00 -7.83204127E+00
  0.00000000E+00  0.00000000E+00  0.00000000E+00  0.00000000E+00  0.00000000E+00
  0.00000000E+00 -4.57470830E+00  0.00000000E+00  0.00000000E+00 -4.86876149E+00
  0.00000000E+00  0.00000000E+00  0.00000000E+00  0.00000000E+00  0.00000000E+00
  0.00000000E+00  0.00000000E+00 -4.57470830E+00  0.00000000E+00  0.00000000E+00
 -4.86876149E+00  0.00000000E+00  0.00000000E+00  0.00000000E+00  0.00000000E+00
  0.00000000E+00  0.00000000E+00  0.00000000E+00  0.00000000E+00 -4.57470830E+00
  0.00000000E+00  0.00000000E+00 -4.86876149E+00  0.00000000E+00  0.00000000E+00
  0.00000000E+00  0.00000000E+00  0.00000000E+00  0.00000000E+00 -1.82498845E+00
  0.00000000E+00  0.00000000E+00 -3.04784767E+00  0.00000000E+00  0.00000000E+00
 -3.12115370E+00  0.00000000E+00  0.00000000E+00  0.00000000E+00  0.00000000E+00
  0.00000000E+00  0.00000000E+00  0.00000000E+00 -1.82498845E+00  0.00000000E+00
  0.00000000E+00 -3.04784767E+00  0.00000000E+00  0.00000000E+00 -3.12115370E+00
  0.00000000E+00  0.00000000E+00  0.00000000E+00  0.00000000E+00  0.00000000E+00
  0.00000000E+00  0.00000000E+00  0.00000000E+00 -1.82498845E+00  0.00000000E+00
  0.00000000E+00 -3.04784767E+00  0.00000000E+00  0.00000000E+00 -3.12115370E+00
  0.00000000E+00  0.00000000E+00  0.00000000E+00  0.00000000E+00  0.00000000E+00
  0.00000000E+00 -5.56107752E-01  0.00000000E+00  0.00000000E+00 -1.20175764E+00
  0.00000000E+00  0.00000000E+00 -1.87519753E+00  0.00000000E+00  0.00000000E+00
 -1.90862470E+00  0.00000000E+00  0.00000000E+00  0.00000000E+00  0.00000000E+00
  0.00000000E+00  0.00000000E+00  0.00000000E+00 -5.56107752E-01  0.00000000E+00
  0.00000000E+00 -1.20175764E+00  0.00000000E+00  0.00000000E+00 -1.87519753E+00
  0.00000000E+00  0.00000000E+00 -1.90862470E+00  0.00000000E+00  0.00000000E+00
  0.00000000E+00  0.00000000E+00  0.00000000E+00  0.00000000E+00  0.00000000E+00
  0.00000000E+00 -5.56107752E-01  0.00000000E+00  0.00000000E+00 -1.20175764E+00
  0.00000000E+00  0.00000000E+00 -1.87519753E+00  0.00000000E+00  0.00000000E+00
 -1.90862470E+00  0.00000000E+00  4.44089210E-16  0.00000000E+00  0.00000000E+00
  0.00000000E+00  8.88178420E-16  0.00000000E+00  0.00000000E+00  0.00000000E+00
  0.00000000E+00  0.00000000E+00  0.00000000E+00  0.00000000E+00  0.00000000E+00
  0.00000000E+00  0.00000000E+00  0.00000000E+00  0.00000000E+00 -2.25815437E+00
  0.00000000E+00  0.00000000E+00  0.00000000E+00  0.00000000E+00  0.00000000E+00
  0.00000000E+00  0.00000000E+00  0.00000000E+00  0.00000000E+00  0.00000000E+00
  0.00000000E+00  0.00000000E+00  0.00000000E+00  0.00000000E+00  0.00000000E+00
  0.00000000E+00  0.00000000E+00  0.00000000E+00  0.00000000E+00 -2.25815437E+00
  0.00000000E+00  0.00000000E+00  0.00000000E+00  0.00000000E+00  0.00000000E+00
  0.00000000E+00  0.00000000E+00  0.00000000E+00  0.00000000E+00  0.00000000E+00
  0.00000000E+00  0.00000000E+00  0.00000000E+00  0.00000000E+00  0.00000000E+00
  0.00000000E+00  0.00000000E+00  0.00000000E+00  0.00000000E+00  0.00000000E+00
 -2.25815437E+00  0.00000000E+00  0.00000000E+00  0.00000000E+00  0.00000000E+00
  0.00000000E+00  0.00000000E+00  0.00000000E+00  0.00000000E+00  0.00000000E+00
  0.00000000E+00  0.00000000E+00  0.00000000E+00  0.00000000E+00  0.00000000E+00
  0.00000000E+00  0.00000000E+00  0.00000000E+00  0.00000000E+00  0.00000000E+00
  0.00000000E+00  0.00000000E+00 -2.25815437E+00  0.00000000E+00  0.00000000E+00
  0.00000000E+00  0.00000000E+00  0.00000000E+00  0.00000000E+00  0.00000000E+00
  0.00000000E+00  0.00000000E+00  0.00000000E+00  0.00000000E+00  0.00000000E+00
  0.00000000E+00  0.00000000E+00  0.00000000E+00  0.00000000E+00  0.00000000E+00
  0.00000000E+00  0.00000000E+00  0.00000000E+00  0.00000000E+00  0.00000000E+00
 -2.25815437E+00  0.00000000E+00  0.00000000E+00  0.00000000E+00  0.00000000E+00
  0.00000000E+00  0.00000000E+00  0.00000000E+00  0.00000000E+00  0.00000000E+00
  0.00000000E+00  0.00000000E+00  0.00000000E+00  0.00000000E+00  0.00000000E+00
  0.00000000E+00  0.00000000E+00  0.00000000E+00  0.00000000E+00 -2.43069784E+00
  0.00000000E+00  0.00000000E+00  0.00000000E+00  0.00000000E+00 -3.21062746E+00
  0.00000000E+00  0.00000000E+00  0.00000000E+00  0.00000000E+00  0.00000000E+00
  0.00000000E+00  0.00000000E+00  0.00000000E+00  0.00000000E+00  0.00000000E+00
  0.00000000E+00  0.00000000E+00  0.00000000E+00  0.00000000E+00  0.00000000E+00
  0.00000000E+00  0.00000000E+00  0.00000000E+00  0.00000000E+00 -2.43069784E+00
  0.00000000E+00  0.00000000E+00  0.00000000E+00  0.00000000E+00 -3.21062746E+00
  0.00000000E+00  0.00000000E+00  0.00000000E+00  0.00000000E+00  0.00000000E+00
  0.00000000E+00  0.00000000E+00  0.00000000E+00  0.00000000E+00  0.00000000E+00
  0.00000000E+00  0.00000000E+00  0.00000000E+00  0.00000000E+00  0.00000000E+00
  0.00000000E+00  0.00000000E+00  0.00000000E+00  0.00000000E+00  0.00000000E+00
 -2.43069784E+00  0.00000000E+00  0.00000000E+00  0.00000000E+00  0.00000000E+00
 -3.21062746E+00  0.00000000E+00  0.00000000E+00  0.00000000E+00  0.00000000E+00
  0.00000000E+00  0.00000000E+00  0.00000000E+00  0.00000000E+00  0.00000000E+00
  0.00000000E+00  0.00000000E+00  0.00000000E+00  0.00000000E+00  0.00000000E+00
  0.00000000E+00  0.00000000E+00  0.00000000E+00  0.00000000E+00  0.00000000E+00
  0.00000000E+00  0.00000000E+00 -2.43069784E+00  0.00000000E+00  0.00000000E+00
  0.00000000E+00  0.00000000E+00 -3.21062746E+00  0.00000000E+00  0.00000000E+00
  0.00000000E+00  0.00000000E+00  0.00000000E+00  0.00000000E+00  0.00000000E+00
  0.00000000E+00  0.00000000E+00  0.00000000E+00  0.00000000E+00  0.00000000E+00
  0.00000000E+00  0.00000000E+00  0.00000000E+00  0.00000000E+00  0.00000000E+00
  0.00000000E+00  0.00000000E+00  0.00000000E+00  0.00000000E+00  0.00000000E+00
 -2.43069784E+00  0.00000000E+00  0.00000000E+00  0.00000000E+00  0.00000000E+00
 -3.21062746E+00  0.00000000E+00  0.00000000E+00  0.00000000E+00  0.00000000E+00
  0.00000000E+00  0.00000000E+00  0.00000000E+00  0.00000000E+00 -1.11022302E-15
  0.00000000E+00  0.00000000E+00  6.66133815E-16  0.00000000E+00  0.00000000E+00
  0.00000000E+00  0.00000000E+00  0.00000000E+00  2.15105711E-16  0.00000000E+00
  0.00000000E+00  0.00000000E+00  0.00000000E+00  0.00000000E+00  0.00000000E+00
  0.00000000E+00  0.00000000E+00  0.00000000E+00  0.00000000E+00 -5.47905950E-01
  0.00000000E+00  0.00000000E+00  0.00000000E+00  0.00000000E+00  0.00000000E+00
  0.00000000E+00 -1.11022302E-16  0.00000000E+00  0.00000000E+00  4.44089210E-16
  0.00000000E+00  0.00000000E+00 -4.99600361E-16  0.00000000E+00  0.00000000E+00
 -1.04083409E-16  0.00000000E+00  0.00000000E+00  0.00000000E+00  0.00000000E+00
  0.00000000E+00  0.00000000E+00  0.00000000E+00  0.00000000E+00  0.00000000E+00
  0.00000000E+00  0.00000000E+00  0.00000000E+00  0.00000000E+00 -5.47905950E-01
  0.00000000E+00  0.00000000E+00  0.00000000E+00  0.00000000E+00  0.00000000E+00
  0.00000000E+00  0.00000000E+00 -1.11022302E-16  0.00000000E+00  0.00000000E+00
  4.44089210E-16  0.00000000E+00  0.00000000E+00 -4.99600361E-16  0.00000000E+00
  0.00000000E+00 -1.04083409E-16  0.00000000E+00  0.00000000E+00  0.00000000E+00
  0.00000000E+00  0.00000000E+00  0.00000000E+00  0.00000000E+00  0.00000000E+00
  0.00000000E+00  0.00000000E+00  0.00000000E+00  0.00000000E+00  0.00000000E+00
 -5.47905950E-01  0.00000000E+00  0.00000000E+00  0.00000000E+00  0.00000000E+00
  0.00000000E+00  0.00000000E+00  0.00000000E+00  0.00000000E+00  0.00000000E+00
  0.00000000E+00  0.00000000E+00  0.00000000E+00  0.00000000E+00  0.00000000E+00
  0.00000000E+00  0.00000000E+00  0.00000000E+00  0.00000000E+00  0.00000000E+00
  0.00000000E+00  0.00000000E+00  0.00000000E+00  0.00000000E+00  0.00000000E+00
  0.00000000E+00  0.00000000E+00  0.00000000E+00  0.00000000E+00  0.00000000E+00
  0.00000000E+00  0.00000000E+00 -5.47905950E-01  0.00000000E+00  0.00000000E+00
  0.00000000E+00  0.00000000E+00  0.00000000E+00  0.00000000E+00  0.00000000E+00
  0.00000000E+00  0.00000000E+00  0.00000000E+00  0.00000000E+00  0.00000000E+00
  0.00000000E+00  0.00000000E+00  0.00000000E+00  0.00000000E+00  0.00000000E+00
  0.00000000E+00  0.00000000E+00  0.00000000E+00  0.00000000E+00  0.00000000E+00
  0.00000000E+00  0.00000000E+00  0.00000000E+00  0.00000000E+00  0.00000000E+00
  0.00000000E+00  0.00000000E+00  0.00000000E+00  0.00000000E+00  0.00000000E+00
 -5.47905950E-01  0.00000000E+00  0.00000000E+00  0.00000000E+00  0.00000000E+00
  0.00000000E+00  0.00000000E+00 -1.11022302E-16  0.00000000E+00  0.00000000E+00
  4.44089210E-16  0.00000000E+00  0.00000000E+00  4.44089210E-16  0.00000000E+00
  0.00000000E+00  3.50414142E-16  0.00000000E+00  0.00000000E+00  0.00000000E+00
  0.00000000E+00  0.00000000E+00  0.00000000E+00  0.00000000E+00  0.00000000E+00
  0.00000000E+00  0.00000000E+00  0.00000000E+00  0.00000000E+00  0.00000000E+00
  2.22044605E-16  0.00000000E+00  0.00000000E+00  0.00000000E+00 -5.47905950E-01
  0.00000000E+00  0.00000000E+00  0.00000000E+00  0.00000000E+00  0.00000000E+00
  0.00000000E+00  0.00000000E+00  1.11022302E-16  0.00000000E+00  0.00000000E+00
 -4.44089210E-16  0.00000000E+00  0.00000000E+00 -4.44089210E-16  0.00000000E+00
  0.00000000E+00 -3.50414142E-16  0.00000000E+00  0.00000000E+00  0.00000000E+00
  0.00000000E+00  0.00000000E+00  0.00000000E+00  0.00000000E+00  0.00000000E+00
  0.00000000E+00  0.00000000E+00  0.00000000E+00  0.00000000E+00  0.00000000E+00
  6.44940742E-16  0.00000000E+00  0.00000000E+00  0.00000000E+00 -5.47905950E-01
Number of independent functions            I               35
Alpha MO coefficients                      R   N=        1225
 -4.34917037E-01 -6.42064811E-01 -2.41059182E-02  8.77614675E-03 -4.27020071E-03
  1.01986049E-03  1.43635670E-16 -1.01623210E-16 -8.97412235E-18 -1.35065119E-16
  2.42141159E-17  6.36560161E-18  1.11775910E-16  1.36936341E-16 -4.86720835E-18
 -9.37363924E-17 -8.76602082E-17  1.59242375E-18 -3.22418819E-04  1.90895536E-10
  6.40966845E-07 -5.58446044E-04  3.32637692E-07  7.96759083E-05 -4.71739708E-11
 -1.58395269E-07  1.38002788E-04 -8.22011893E-08  7.86744693E-18 -8.27621357E-17
 -1.02433421E-18 -2.31467351E-17  3.65384468E-17 -5.03329498E-17 -1.84066437E-17
 -1.09852719E-01 -2.67999388E-01  4.06858908E-01  5.54737030E-01  1.71955774E-01
  4.52507249E-04  1.11052846E-16 -2.66631626E-17 -7.84211753E-17 -2.45562025E-16
 -6.88425715E-17 -3.11199202E-17  1.13725127E-16  2.85600579E-16 -6.06637598E-18
 -3.55957911E-17 -1.35656540E-16  1.22181740E-17  4.10009126E-03 -2.42755404E-09
 -8.15095896E-06  7.10156979E-03 -4.23004122E-06  8.24081685E-03 -4.87916580E-09
 -1.63826988E-05  1.42735204E-02 -8.50200467E-06  2.75922634E-18  1.30236742E-17
  3.94207158E-17 -1.59656550E-17  2.94113693E-17 -2.88307208E-16  7.66370229E-17
 -2.83881922E-16  3.09736340E-16 -2.66217239E-16  3.54670924E-16 -1.82087817E-16
  7.15048664E-17  5.19315404E-01 -1.54664621E-04 -2.66279012E-07  4.60822411E-01
 -1.37244001E-04 -2.36286726E-07  2.06864948E-01 -6.16093583E-05 -1.06070018E-07
  2.69456985E-03 -8.02507729E-07 -1.38164095E-09  1.87090085E-17 -2.51232104E-18
  1.43440367E-16 -1.40697310E-17  1.68865863E-16  1.36331292E-16 -1.85116812E-16
  5.02730944E-17 -3.78479327E-16  8.23974951E-17 -2.41066611E-09  1.91935683E-03
 -5.71624992E-07 -7.26170588E-09 -6.96643214E-06  7.43364420E-03 -6.64176020E-06
 -1.10593296E-16 -3.71176616E-16  2.25754434E-15 -2.58202086E-15  8.51982341E-16
 -2.91121855E-16 -1.77519384E-07  2.98026953E-04 -5.19315342E-01 -1.57524521E-07
  2.64458743E-04 -4.60822356E-01 -7.07133619E-08  1.18716544E-04 -2.06864923E-01
 -9.21094054E-10  1.54637131E-06 -2.69456949E-03 -1.10176288E-17 -4.06484484E-17
  8.88602455E-17 -1.78047527E-17  5.99419335E-17  1.82235551E-17  8.80226361E-16
 -6.42677810E-16 -3.28830275E-18  4.98064102E-16 -4.70144431E-03  2.62440476E-09
  1.21163877E-05 -6.06954142E-03  3.61531838E-06 -1.11242261E-16  4.26605391E-06
 -5.89660179E-18 -9.68081907E-17  4.28407234E-17  2.97155937E-18  1.79645808E-17
  2.02903429E-17 -1.50672648E-04 -5.05911107E-01 -2.90334421E-04 -1.32971948E-04
 -4.46477753E-01 -2.56226555E-04 -7.14753681E-05 -2.39991685E-01 -1.37727450E-04
 -3.13816209E-06 -1.05369560E-02 -6.04699314E-06 -8.85214574E-17  3.50199644E-17
  1.30449049E-17 -4.88180316E-17 -4.26073959E-17 -2.97319107E-16 -6.85504629E-17
 -1.58774140E-16 -1.18911255E-16  1.75595004E-16 -8.14268713E-06 -1.72515269E-06
 -5.79251722E-03 -1.05121643E-05  6.26155776E-09 -6.68149565E-06 -7.47811478E-03
 -2.14974989E-02 -5.95936694E-02  1.77523831E-01 -2.02574197E-01  1.08030802E+00
 -1.62567936E+00 -3.09467975E-17 -1.20142829E-16 -1.15857730E-15 -1.14970683E-17
 -1.31584702E-16 -5.21877487E-16 -9.14063360E-17 -2.96528576E-17 -1.00754041E-15
  3.49220495E-16  6.64501084E-16  7.44430909E-15  1.08427383E-03 -6.41969273E-10
 -2.15553044E-06  1.87801828E-03 -1.11863925E-06  3.02168513E-04 -1.78905798E-10
 -6.00709332E-07  5.23371456E-04 -3.11745557E-07 -1.55243214E-17  2.74109301E-20
 -1.45091866E-16 -6.74250510E-18 -1.40985637E-16 -9.60826724E-19  1.25750775E-16
 -1.71660445E-16  2.47493272E-16 -2.49747111E-16  2.57474250E-16 -4.34276218E-16
  5.09107242E-16 -1.10198701E-01  3.28198344E-05  3.99610817E-08 -1.16619309E-02
  3.47320462E-06  4.22893714E-09 -4.34711512E-01  1.29467586E-04  1.57638357E-07
  1.24519052E+00 -3.70847805E-04 -4.51540348E-07 -4.12602789E-18 -7.92789513E-19
 -6.94449870E-18  1.73294227E-18 -3.77301693E-18 -3.33027808E-17  2.39552573E-17
 -1.00867934E-17 -2.13294219E-18 -1.46273227E-17  2.35930813E-10 -2.65612389E-04
  7.91052332E-08  8.78825499E-10  9.64057748E-07 -1.02871335E-03  9.19127669E-07
  8.88960482E-17  3.17289118E-16 -1.91634068E-15  5.71766921E-15 -1.34788440E-14
  1.39313258E-14 -2.11262897E-08  6.32413030E-05 -1.10198688E-01 -2.23571900E-09
  6.69259881E-06 -1.16619297E-02 -8.33389252E-08  2.49474106E-04 -4.34711460E-01
  2.38716567E-07 -7.14595268E-04  1.24519037E+00 -4.37085734E-17 -2.15537042E-16
 -2.07407080E-16  2.79519358E-17 -2.33931242E-16  1.23845677E-16  1.37745825E-17
  9.93793311E-17 -4.04162881E-17  1.07515528E-15 -6.50614744E-04  4.03055677E-10
  1.67674018E-06 -8.39940427E-04  5.00309822E-07  1.54433137E-10  5.90362651E-07
 -6.88505723E-17  1.48845090E-16 -1.48826834E-16  1.00683752E-16 -5.94848700E-16
  9.88610575E-16 -3.44865381E-05 -1.15794888E-01 -6.64528677E-05 -3.11982429E-06
 -1.04753832E-02 -6.01165811E-06 -1.40068542E-04 -4.70305867E-01 -2.69901149E-04
  3.75054827E-04  1.25931550E+00  7.22701386E-04 -6.61427618E-18 -2.04576877E-17
 -8.84658659E-18 -5.20603234E-17 -5.04312636E-19 -8.59713020E-17 -9.21470180E-17
 -7.68353427E-17 -1.09706955E-16  1.69581718E-17 -1.28065435E-06 -2.71326189E-07
 -9.11027544E-04 -1.65331773E-06  9.84796674E-10 -1.05084307E-06 -1.17613263E-03
  1.89446996E-16  8.34413793E-17  2.32802740E-16 -2.38469696E-15  3.39216041E-15
 -1.35136334E-15  2.65453687E-01 -7.90584959E-05 -1.33749659E-07  7.45595739E-01
 -2.22056353E-04 -3.75670714E-07 -1.80630898E+00  5.37962282E-04  9.10114355E-07
  8.43980718E-01 -2.51357767E-04 -4.25242289E-07  8.72535784E-18  7.31882924E-18
  1.78140705E-17 -1.26135068E-17  7.15353159E-18  1.02968201E-16 -1.08265993E-16
  4.53877074E-17  2.29173130E-17  5.46243903E-17 -7.73616463E-10  6.26824919E-04
 -1.86681733E-07 -2.35389773E-09 -2.27510237E-06  2.42768481E-03 -2.16907078E-06
  3.33143416E-16  7.74677376E-16 -4.04198953E-16 -1.00182581E-14  1.46231563E-14
 -4.36105308E-15 -8.83792144E-08  1.52339702E-04 -2.65453655E-01 -2.48236015E-07
  4.27885683E-04 -7.45595649E-01  6.01386142E-07 -1.03661235E-03  1.80630877E+00
 -2.80991964E-07  4.84347277E-04 -8.43980617E-01 -7.00809504E-17  1.68627094E-16
 -5.33030005E-17 -7.20603958E-17 -3.89459028E-16  9.08607039E-16  4.20132431E-16