Jobname.Temp
SP        R                             6-31G               
Number of atoms                            I                2
Charge                                     I                0
Multiplicity                               I                1
Number of electrons                        I                2
Number of alpha electrons                  I                1
Number of beta electrons                   I                1
Atomic numbers                             I   N=           2
           1           1
Current cartesian coordinates              R   N=           6
  0.00000000E+00  0.00000000E+00 -1.13383567E+00  0.00000000E+00  0.00000000E+00
  1.13383567E+00
Nuclear charges                            R   N=           2
  1.00000000E+00  1.00000000E+00
Number of basis functions                  I                4
Number of contracted shells                I                4
Number of primitive shells                 I                8
Highest angular momentum                   I                0
Largest degree of contraction              I                3
Shell types                                I   N=           4
           0           0           0           0
Number of primitives per shell             I   N=           4
           3           1           3           1
Shell to atom map                          I   N=           4
           1           1           2           2
Primitive exponents                        R   N=           8
  1.87311370E+01  2.82539370E+00  6.40121700E-01  1.61277800E-01  1.87311370E+01
  2.82539370E+00  6.40121700E-01  1.61277800E-01
Contraction coefficients                   R   N=           8
  3.34945995E-02  2.34726947E-01  8.13757318E-01  1.00000000E+00  3.34945995E-02
  2.34726947E-01  8.13757318E-01  1.00000000E+00
Coordinates of each shell                  R   N=          12
  0.00000000E+00  0.00000000E+00 -1.13383567E+00  0.00000000E+00  0.00000000E+00
 -1.13383567E+00  0.00000000E+00  0.00000000E+00  1.13383567E+00  0.00000000E+00
  0.00000000E+00  1.13383567E+00
Overlap Matrix                             R   N=          10
  1.00000000E+00  6.58292049E-01  1.00000000E+00  1.46068181E-01  3.34979555E-01
  1.00000000E+00  3.34979555E-01  6.60556839E-01  6.58292049E-01  1.00000000E+00
Core Hamiltonian Matrix                    R   N=          10
 -6.98450297E-01 -7.71815865E-01 -8.09685986E-01 -2.88525110E-01 -4.62446695E-01
 -6.98450297E-01 -4.62446695E-01 -6.27217814E-01 -7.71815865E-01 -8.09685986E-01
Number of independent functions            I                4
Alpha MO coefficients                      R   N=          16
 -2.76793112E-01 -3.59447618E-01 -2.76793112E-01 -3.59447618E-01 -2.17917522E-01
 -9.74223921E-01  2.17917522E-01  9.74223921E-01  9.10651388E-01 -7.04289417E-01
  9.10651388E-01 -7.04289417E-01 -9.31821139E-01  1.16391485E+00  9.31821139E-01
 -1.16391485E+00
Alpha Orbital Energies                     R   N=           4
 -3.27258302E-01 -5.25754125E-02  7.03453488E-01  8.27911902E-01
Total SCF Density                          R   N=          10
  1.53228854E-01  1.98985250E-01  2.58405181E-01  1.53228854E-01  1.98985250E-01
  1.53228854E-01  1.98985250E-01  2.58405181E-01  1.98985250E-01  2.58405181E-01
Pure Switching                             I                1
Dipole_Data                                R   N=           3
  0.00000000E+00  0.00000000E+00 -2.15875753E-14
Quadrupole_Data                            R   N=           6
 -2.54552502E+00  0.00000000E+00 -2.54552502E+00  0.00000000E+00  0.00000000E+00
 -1.60599157E+00
Octapole_Data                              R   N=          10
  0.00000000E+00  0.00000000E+00  0.00000000E+00  0.00000000E+00 -6.03525911E-15
  0.00000000E+00 -6.03525911E-15  0.00000000E+00  0.00000000E+00 -2.61560820E-14
Hexadecapole_Data                          R   N=          15
 -2.68662878E+00  0.00000000E+00 -8.95542928E-01  0.00000000E+00 -2.68662878E+00
  0.00000000E+00  0.00000000E+00  0.00000000E+00  0.00000000E+00 -1.50105459E+00
  0.00000000E+00 -1.50105459E+00  0.00000000E+00  0.00000000E+00 -5.94373476E+00
