Jobname.Temp
SP        R                             cc-pVTZ             
Number of atoms                            I                3
Charge                                     I                0
Multiplicity                               I                1
Number of electrons                        I               10
Number of alpha electrons                  I                5
Number of beta electrons                   I                5
Atomic numbers                             I   N=           3
           8           1           1
Current cartesian coordinates              R   N=           9
  0.00000000E+00  0.00000000E+00  4.20636688E-01 -2.69777054E+00 -2.89755506E-16
 -1.68254673E+00  2.69777054E+00  2.89755506E-16 -1.68254673E+00
Nuclear charges                            R   N=           3
  8.00000000E+00  1.00000000E+00  1.00000000E+00
Number of basis functions                  I               58
Number of contracted shells                I               22
Number of primitive shells                 I               40
Highest angular momentum                   I                3
Largest degree of contraction              I                7
Shell types                                I   N=          22
           0           0           0           0           1           1
           1          -2          -2          -3           0           0
           0           1           1          -2           0           0
           0           1           1          -2
Number of primitives per shell             I   N=          22
           7           7           1           1           3           1
           1           1           1           1           3           1
           1           1           1           1           3           1
           1           1           1           1
Shell to atom map                          I   N=          22
           1           1           1           1           1           1
           1           1           1           1           2           2
           2           2           2           2           3           3
           3           3           3           3
Primitive exponents                        R   N=          40
  1.53300000E+04  2.29900000E+03  5.22400000E+02  1.47300000E+02  4.75500000E+01
  1.67600000E+01  6.20700000E+00  1.53300000E+04  2.29900000E+03  1.47300000E+02
  4.75500000E+01  1.67600000E+01  6.20700000E+00  6.88200000E-01  1.75200000E+00
  2.38400000E-01  3.44600000E+01  7.74900000E+00  2.28000000E+00  7.15600000E-01
  2.14000000E-01  2.31400000E+00  6.45000000E-01  1.42800000E+00  3.38700000E+01
  5.09500000E+00  1.15900000E+00  3.25800000E-01  1.02700000E-01  1.40700000E+00
  3.88000000E-01  1.05700000E+00  3.38700000E+01  5.09500000E+00  1.15900000E+00
  3.25800000E-01  1.02700000E-01  1.40700000E+00  3.88000000E-01  1.05700000E+00
Contraction coefficients                   R   N=          40
  5.19807566E-04  4.02025773E-03  2.07128269E-02  8.10105552E-02  2.35962988E-01
  4.42653444E-01  3.57064420E-01  2.39729119E-06  8.58121279E-06 -1.05276498E-03
 -1.00458896E-02 -6.64857111E-02 -1.70398750E-01  1.07306114E+00  1.00000000E+00
  1.00000000E+00  4.11634896E-02  2.57762836E-01  8.02419274E-01  1.00000000E+00
  1.00000000E+00  1.00000000E+00  1.00000000E+00  1.00000000E+00  2.54948632E-02
  1.90362766E-01  8.52162022E-01  1.00000000E+00  1.00000000E+00  1.00000000E+00
  1.00000000E+00  1.00000000E+00  2.54948632E-02  1.90362766E-01  8.52162022E-01
  1.00000000E+00  1.00000000E+00  1.00000000E+00  1.00000000E+00  1.00000000E+00
Coordinates of each shell                  R   N=          66
  0.00000000E+00  0.00000000E+00  4.20636688E-01  0.00000000E+00  0.00000000E+00
  4.20636688E-01  0.00000000E+00  0.00000000E+00  4.20636688E-01  0.00000000E+00
  0.00000000E+00  4.20636688E-01  0.00000000E+00  0.00000000E+00  4.20636688E-01
  0.00000000E+00  0.00000000E+00  4.20636688E-01  0.00000000E+00  0.00000000E+00
  4.20636688E-01  0.00000000E+00  0.00000000E+00  4.20636688E-01  0.00000000E+00
  0.00000000E+00  4.20636688E-01  0.00000000E+00  0.00000000E+00  4.20636688E-01
 -2.69777054E+00 -2.89755506E-16 -1.68254673E+00 -2.69777054E+00 -2.89755506E-16
 -1.68254673E+00 -2.69777054E+00 -2.89755506E-16 -1.68254673E+00 -2.69777054E+00
 -2.89755506E-16 -1.68254673E+00 -2.69777054E+00 -2.89755506E-16 -1.68254673E+00
 -2.69777054E+00 -2.89755506E-16 -1.68254673E+00  2.69777054E+00  2.89755506E-16
 -1.68254673E+00  2.69777054E+00  2.89755506E-16 -1.68254673E+00  2.69777054E+00
  2.89755506E-16 -1.68254673E+00  2.69777054E+00  2.89755506E-16 -1.68254673E+00
  2.69777054E+00  2.89755506E-16 -1.68254673E+00  2.69777054E+00  2.89755506E-16
 -1.68254673E+00
Overlap Matrix                             R   N=        1711
  1.00000000E+00  1.04712649E-01  1.00000000E+00  5.29767968E-01  7.55463327E-01
  1.00000000E+00  1.47812726E-01  8.29541310E-01  5.23316844E-01  1.00000000E+00
  0.00000000E+00  0.00000000E+00  0.00000000E+00  0.00000000E+00  1.00000000E+00
  0.00000000E+00  0.00000000E+00  0.00000000E+00  0.00000000E+00  0.00000000E+00
  1.00000000E+00 -3.15106116E-18  3.60834864E-17  4.68743798E-17 -1.58162725E-17
  0.00000000E+00  0.00000000E+00  1.00000000E+00  0.00000000E+00  0.00000000E+00
  0.00000000E+00  0.00000000E+00  6.00183926E-01  0.00000000E+00  0.00000000E+00
  1.00000000E+00  0.00000000E+00  0.00000000E+00  0.00000000E+00  0.00000000E+00
  0.00000000E+00  6.00183926E-01  0.00000000E+00  0.00000000E+00  1.00000000E+00
 -3.93120392E-19  5.10875873E-21  0.00000000E+00  7.56746227E-17  0.00000000E+00
  0.00000000E+00  6.00183926E-01  0.00000000E+00  0.00000000E+00  1.00000000E+00
  0.00000000E+00  0.00000000E+00  0.00000000E+00  0.00000000E+00  2.04173581E-01
  0.00000000E+00  0.00000000E+00  6.50413929E-01  0.00000000E+00  0.00000000E+00
  1.00000000E+00  0.00000000E+00  0.00000000E+00  0.00000000E+00  0.00000000E+00
  0.00000000E+00  2.04173581E-01  0.00000000E+00  0.00000000E+00  6.50413929E-01
  0.00000000E+00  0.00000000E+00  1.00000000E+00 -1.55602893E-18  4.47666734E-17
  0.00000000E+00 -5.12469749E-17  0.00000000E+00  0.00000000E+00  2.04173581E-01
  0.00000000E+00  0.00000000E+00  6.50413929E-01  0.00000000E+00  0.00000000E+00
  1.00000000E+00  0.00000000E+00  0.00000000E+00  0.00000000E+00  0.00000000E+00
  0.00000000E+00  0.00000000E+00  2.23115066E-16  0.00000000E+00  0.00000000E+00
  0.00000000E+00  0.00000000E+00  0.00000000E+00  0.00000000E+00  1.00000000E+00
  0.00000000E+00  0.00000000E+00  0.00000000E+00  0.00000000E+00  1.93223315E-16
  0.00000000E+00  0.00000000E+00  0.00000000E+00  0.00000000E+00  0.00000000E+00
  0.00000000E+00  0.00000000E+00  0.00000000E+00  0.00000000E+00  1.00000000E+00
  0.00000000E+00  0.00000000E+00  0.00000000E+00  0.00000000E+00  0.00000000E+00
  1.93223315E-16  0.00000000E+00  0.00000000E+00  0.00000000E+00  0.00000000E+00
  0.00000000E+00  0.00000000E+00  0.00000000E+00  0.00000000E+00  0.00000000E+00
  1.00000000E+00 -5.86034739E-18  5.49634588E-17 -4.65604530E-17 -4.86025116E-19
  0.00000000E+00  0.00000000E+00 -2.88050052E-33  0.00000000E+00  0.00000000E+00
  0.00000000E+00  0.00000000E+00  0.00000000E+00  0.00000000E+00  9.91611210E-18
  0.00000000E+00  0.00000000E+00  1.00000000E+00  0.00000000E+00  0.00000000E+00
  0.00000000E+00  0.00000000E+00  0.00000000E+00  0.00000000E+00  0.00000000E+00
  0.00000000E+00  0.00000000E+00  0.00000000E+00  0.00000000E+00  0.00000000E+00
  0.00000000E+00  0.00000000E+00  0.00000000E+00  0.00000000E+00  0.00000000E+00
  1.00000000E+00  0.00000000E+00  0.00000000E+00  0.00000000E+00  0.00000000E+00
  0.00000000E+00  0.00000000E+00 -5.65436229E-18  0.00000000E+00  0.00000000E+00
  0.00000000E+00  0.00000000E+00  0.00000000E+00  0.00000000E+00  5.11638218E-01
  0.00000000E+00  0.00000000E+00 -2.73418426E-17  0.00000000E+00  1.00000000E+00
  0.00000000E+00  0.00000000E+00  0.00000000E+00  0.00000000E+00 -4.89682139E-18
  0.00000000E+00  0.00000000E+00  0.00000000E+00  0.00000000E+00  0.00000000E+00
  0.00000000E+00  0.00000000E+00  0.00000000E+00  0.00000000E+00  5.11638218E-01
  0.00000000E+00  0.00000000E+00  0.00000000E+00  0.00000000E+00  1.00000000E+00
  0.00000000E+00  0.00000000E+00  0.00000000E+00  0.00000000E+00  0.00000000E+00
 -4.89682139E-18  0.00000000E+00  0.00000000E+00  0.00000000E+00  0.00000000E+00
  0.00000000E+00  0.00000000E+00  0.00000000E+00  0.00000000E+00  0.00000000E+00
  5.11638218E-01  0.00000000E+00  0.00000000E+00  0.00000000E+00  0.00000000E+00
  1.00000000E+00 -9.67249879E-19  4.13664842E-18  1.25541576E-17 -3.49841677E-17
  0.00000000E+00  0.00000000E+00  1.89516066E-34  0.00000000E+00  0.00000000E+00
  0.00000000E+00  0.00000000E+00  0.00000000E+00  0.00000000E+00 -1.32951405E-17
  0.00000000E+00  0.00000000E+00  5.11638218E-01  0.00000000E+00  1.73531962E-17
  0.00000000E+00  0.00000000E+00  1.00000000E+00  0.00000000E+00  0.00000000E+00
  0.00000000E+00  0.00000000E+00  0.00000000E+00  0.00000000E+00  0.00000000E+00
  0.00000000E+00  0.00000000E+00  0.00000000E+00  0.00000000E+00  0.00000000E+00
  0.00000000E+00  0.00000000E+00  0.00000000E+00  0.00000000E+00  0.00000000E+00
  5.11638218E-01  0.00000000E+00  0.00000000E+00  0.00000000E+00  0.00000000E+00
  1.00000000E+00  3.08148791E-33  2.46519033E-32  0.00000000E+00  0.00000000E+00
  0.00000000E+00  0.00000000E+00 -1.11022302E-16  0.00000000E+00  0.00000000E+00
 -1.11022302E-16  0.00000000E+00  0.00000000E+00  0.00000000E+00 -1.60902415E-16
  0.00000000E+00  0.00000000E+00  5.06671271E-33  0.00000000E+00 -1.35963356E-16
  0.00000000E+00  0.00000000E+00 -1.03359590E-33  0.00000000E+00  1.00000000E+00
  0.00000000E+00  0.00000000E+00  0.00000000E+00  0.00000000E+00  9.48394126E-17
  0.00000000E+00  0.00000000E+00  1.01758373E-16  0.00000000E+00  0.00000000E+00
  3.33931168E-17  0.00000000E+00  0.00000000E+00  0.00000000E+00 -1.51700252E-16
  0.00000000E+00  0.00000000E+00  0.00000000E+00  0.00000000E+00 -1.28187482E-16
  0.00000000E+00  0.00000000E+00  0.00000000E+00  0.00000000E+00  1.00000000E+00
  0.00000000E+00  0.00000000E+00  0.00000000E+00  0.00000000E+00  0.00000000E+00
  9.48394126E-17  0.00000000E+00  0.00000000E+00  1.01758373E-16  0.00000000E+00
  0.00000000E+00 -2.21180345E-17  0.00000000E+00  0.00000000E+00  0.00000000E+00
 -1.51700252E-16  0.00000000E+00  0.00000000E+00  0.00000000E+00  0.00000000E+00
 -1.28187482E-16  0.00000000E+00  0.00000000E+00  0.00000000E+00  0.00000000E+00
  1.00000000E+00 -3.81330393E-34 -3.77299444E-33  0.00000000E+00  0.00000000E+00
  0.00000000E+00  0.00000000E+00 -2.45618501E-17  0.00000000E+00  0.00000000E+00
  2.15888798E-17  0.00000000E+00  0.00000000E+00 -2.49032210E-17 -1.29070459E-33
  0.00000000E+00  0.00000000E+00 -1.19929579E-16  0.00000000E+00 -1.26288242E-33
  0.00000000E+00  0.00000000E+00 -1.01341102E-16  0.00000000E+00 -1.52962090E-17
  0.00000000E+00  0.00000000E+00  1.00000000E+00  0.00000000E+00  0.00000000E+00
  0.00000000E+00  0.00000000E+00  0.00000000E+00  0.00000000E+00  0.00000000E+00
  0.00000000E+00  0.00000000E+00  0.00000000E+00  0.00000000E+00  0.00000000E+00
  0.00000000E+00  0.00000000E+00  0.00000000E+00  0.00000000E+00  0.00000000E+00
 -1.19929579E-16  0.00000000E+00  0.00000000E+00  0.00000000E+00  0.00000000E+00
 -1.01341102E-16  0.00000000E+00  0.00000000E+00  0.00000000E+00  0.00000000E+00
  1.00000000E+00  0.00000000E+00  0.00000000E+00  0.00000000E+00  0.00000000E+00
 -5.55111512E-17  0.00000000E+00  0.00000000E+00  0.00000000E+00  0.00000000E+00
  0.00000000E+00  1.11022302E-16  0.00000000E+00  0.00000000E+00  0.00000000E+00
  1.23259516E-32  0.00000000E+00  0.00000000E+00  0.00000000E+00  0.00000000E+00
  0.00000000E+00  0.00000000E+00  0.00000000E+00  0.00000000E+00  0.00000000E+00
 -1.94289029E-16  0.00000000E+00  0.00000000E+00  0.00000000E+00  1.00000000E+00
  0.00000000E+00  0.00000000E+00  0.00000000E+00  0.00000000E+00  0.00000000E+00
  4.30575241E-17  0.00000000E+00  0.00000000E+00 -2.12708782E-17  0.00000000E+00
  0.00000000E+00 -9.77121991E-17  0.00000000E+00  0.00000000E+00  0.00000000E+00
 -7.23047127E-33  0.00000000E+00  0.00000000E+00  0.00000000E+00  0.00000000E+00
  1.39721174E-33  0.00000000E+00  0.00000000E+00  0.00000000E+00  0.00000000E+00
  2.78565357E-16  0.00000000E+00  0.00000000E+00  0.00000000E+00  1.00000000E+00
  2.53011481E-06  5.64688479E-03  2.35480188E-04  5.86220160E-02 -2.16648144E-04
 -2.32692113E-20 -1.68899014E-04 -1.32680493E-02 -1.42506202E-18 -1.03437786E-02
 -1.44495778E-01 -1.55196473E-17 -1.12648989E-01  4.33739898E-05  5.43420404E-04
  5.83663629E-20  3.48524895E-04  7.48670103E-20  3.13346526E-03  3.92582967E-02
  4.21655862E-18  2.51784689E-02  5.40861417E-18  2.05919582E-03 -2.59441940E-03
 -2.78655021E-19 -4.46930385E-03 -9.60056001E-19 -2.34041092E-03 -7.54119308E-19
  1.00000000E+00  4.66007093E-03  7.12980854E-02  2.49144495E-02  1.96108797E-01
 -1.66690458E-02 -1.79034789E-18 -1.29951973E-02 -9.28641854E-02 -9.97412813E-18
 -7.23969706E-02 -3.21591284E-01 -3.45406861E-17 -2.50712744E-01  1.20506943E-03
  1.50979728E-02  1.62160595E-18  9.68314651E-03  2.08004719E-18  9.59289869E-03
  1.20186704E-01  1.29087181E-17  7.70822335E-02  1.65581181E-17  9.49845884E-03
 -1.19672863E-02 -1.28535286E-18 -2.06155715E-02 -4.42845324E-18 -1.07956206E-02
 -3.47852842E-18  7.06285045E-01  1.00000000E+00  2.45037008E-02  1.99905118E-01
  9.94164475E-02  3.79413944E-01 -2.48149487E-02 -2.66526300E-18 -1.93457478E-02
 -1.08014469E-01 -1.16013526E-17 -8.42081404E-02 -3.25510688E-01 -3.49616518E-17
 -2.53768314E-01  6.13805000E-04  7.69018858E-03  8.25968869E-19  4.93213385E-03
  1.05947701E-18  4.46544649E-03  5.59463113E-02  6.00894386E-18  3.58813952E-02
  7.70772137E-18  1.67719893E-03 -2.11313435E-03 -2.26962340E-19 -3.64021310E-03
 -7.81958119E-19 -1.90624643E-03 -6.14224290E-19  3.73527845E-01  7.88878095E-01
  1.00000000E+00  2.18443873E-06  9.20227133E-03  3.80847619E-04  5.04174038E-02
 -3.31567999E-04 -3.86608433E-20 -2.80618807E-04 -1.99409791E-02 -2.50450319E-18
 -1.81788766E-02 -7.31078794E-02 -1.24609891E-17 -9.04477917E-02  1.40856852E-04
  9.40805611E-04  1.09657700E-19  5.51976571E-04  1.29614756E-19  1.36521619E-02
  5.91789143E-02  7.52509172E-18  3.09744602E-02  8.15307698E-18  3.20042950E-03
 -6.21260246E-03 -7.29551019E-19 -8.30720720E-03 -1.99906541E-18 -3.82706767E-03
 -1.40170048E-18  6.57641859E-18  0.00000000E+00  3.76491072E-16  1.00000000E+00
  2.34620825E-22  9.88374936E-19  4.09051448E-20  5.41510856E-18 -3.86608433E-20
  2.83840359E-05 -3.01400149E-20 -2.50450319E-18  3.37721430E-03 -1.95251208E-18
 -1.24609891E-17  4.29102416E-02 -9.71459405E-18  1.51288065E-20  1.09657700E-19
 -8.01631271E-05  8.13734851E-20 -1.02825898E-04  1.46631785E-18  7.52509172E-18
 -1.08835015E-02  6.32566792E-18 -1.39603562E-02  3.43743864E-19 -7.29551019E-19
  5.79887096E-04 -1.32141055E-18  1.99789720E-03 -9.16715233E-19  1.56933851E-03
 -9.89743905E-32  0.00000000E+00  0.00000000E+00  0.00000000E+00  1.00000000E+00
  1.70298965E-06  7.17409584E-03  2.96909015E-04  3.93054360E-02 -2.80618807E-04
 -3.01400149E-20 -1.90386542E-04 -1.81788766E-02 -1.95251208E-18 -1.07950480E-02
 -9.04477917E-02 -9.71459405E-18 -2.76029071E-02 -2.90345288E-05  6.93121898E-04
  7.44451328E-20  5.10484369E-04  1.09657700E-19 -8.20754451E-03  4.06603421E-02
  4.36714606E-18  3.50312079E-02  7.52509172E-18  3.91548412E-03 -2.13647579E-03
 -2.29469339E-19 -6.75250559E-03 -1.45051304E-18 -4.20704126E-03 -1.35557863E-18
  7.82349130E-17  7.27785642E-16  1.88245536E-16  0.00000000E+00  0.00000000E+00
  1.00000000E+00  8.63917678E-03  1.16149490E-01  4.52391750E-02  2.17446695E-01
 -2.82861424E-02 -3.82560047E-18 -2.77680296E-02 -1.24916312E-01 -1.84565961E-17
 -1.33966762E-01 -1.79900030E-01 -3.84977379E-17 -2.79434910E-01  8.73487513E-03
  2.97465931E-02  4.02768109E-18  1.41055794E-02  4.09818710E-18  7.03149507E-02
  1.73813117E-01  2.60578676E-17  6.73513418E-02  2.39462271E-17  6.29754026E-03
 -3.55918103E-02 -4.61281992E-18 -3.09320108E-02 -9.36655682E-18 -9.56226532E-03
 -5.21925279E-18 -1.37327004E-18  0.00000000E+00  0.00000000E+00  6.14923564E-01
  0.00000000E+00  0.00000000E+00  1.00000000E+00  9.27895461E-19  1.24750989E-17
  4.85893809E-18  2.33549800E-17 -3.82560047E-18  7.33213590E-03 -2.98244025E-18
 -1.84565961E-17  4.69239477E-02 -1.43887726E-17 -3.84977379E-17  1.78533411E-01
 -3.00128579E-17  9.38173994E-19  4.02768109E-18 -7.75315809E-03  3.65132203E-18
 -9.94503919E-03  7.55221537E-18  2.60578676E-17 -6.87988301E-02  2.61907322E-17
 -8.82488213E-02  6.76390722E-19 -4.61281992E-18  7.35587977E-03 -8.76630553E-18
  2.53433672E-02 -7.44143607E-18  1.99070914E-02  3.79572654E-32  0.00000000E+00
 -4.50763604E-32  0.00000000E+00  6.14923564E-01  0.00000000E+00  0.00000000E+00
  1.00000000E+00  6.73510702E-03  9.05502071E-02  3.52684860E-02  1.69521564E-01
 -2.77680296E-02 -2.98244025E-18 -1.43158354E-02 -1.33966762E-01 -1.43887726E-17
 -5.75166142E-02 -2.79434910E-01 -3.00128579E-17 -3.93142003E-02 -6.61915021E-03
  1.92897877E-02  2.07183010E-18  1.87498756E-02  4.02768109E-18 -6.43454946E-02
  1.00891588E-01  1.08363156E-17  1.21305974E-01  2.60578676E-17  2.29277179E-02
  6.58933885E-03  7.07731508E-19 -2.76182439E-02 -5.93270489E-18 -2.29743268E-02
 -7.40271005E-18  1.86538629E-17  2.75044754E-16  2.03005880E-16  0.00000000E+00
  0.00000000E+00  6.14923564E-01  0.00000000E+00  0.00000000E+00  1.00000000E+00
  1.01908662E-05  2.34785640E-03  3.17137306E-04  4.54300256E-03 -6.80065934E-04
 -7.30428500E-20  2.13823158E-04 -1.39682238E-02 -1.50026465E-18  8.67934206E-03
 -4.16517701E-02 -4.47363093E-18  4.36817300E-02 -1.68354409E-03  1.03933109E-04
  1.11629918E-20  1.51289959E-03  3.24987599E-19 -4.58942482E-02 -8.08327815E-03
 -8.68188868E-19  3.66700195E-02  7.87712661E-18  7.71832717E-03  1.31964161E-02
  1.41736822E-18 -4.09391944E-03 -8.79419270E-19 -8.89330736E-03 -2.86557148E-18
  0.00000000E+00  0.00000000E+00  0.00000000E+00  0.00000000E+00  0.00000000E+00
  0.00000000E+00  3.89956214E-16  0.00000000E+00 -3.89956214E-16  1.00000000E+00
  1.27678470E-04  2.94156262E-02  3.97332326E-03  5.69179892E-02 -4.10525674E-03
 -4.87063406E-19 -2.98435041E-03 -5.88767913E-02 -7.53717803E-18 -4.02161919E-02
 -6.99297782E-02 -1.22331697E-17 -3.23970468E-02  1.03933109E-04  8.19266217E-03
  9.71967936E-19  5.57307436E-03  1.33699094E-18 -8.08327815E-03  1.01851317E-01
  1.32039878E-17  7.21640539E-02  1.95484028E-17  1.79110245E-02 -1.44170766E-02
 -1.68148513E-18 -3.23028860E-02 -7.95329940E-18 -1.77456467E-02 -6.69682188E-18
 -5.20070616E-32  0.00000000E+00  0.00000000E+00  0.00000000E+00  0.00000000E+00
  0.00000000E+00 -3.37711988E-16  0.00000000E+00 -6.75423976E-16  2.40704826E-31
  1.00000000E+00  1.37133752E-20  3.15940127E-18  4.26756937E-19  6.11330746E-18
 -4.87063406E-19  4.29550297E-04 -3.20535773E-19 -7.53717803E-18  1.12981542E-02
 -4.31944187E-18 -1.22331697E-17  4.39672282E-02 -3.47962236E-18  1.11629918E-20
  9.71967936E-19 -8.56851671E-04  8.78244678E-19 -1.30191424E-03 -8.68188868E-19
  1.32039878E-17 -2.10844981E-02  1.58443476E-17 -3.76774244E-02  1.92374329E-18
 -1.68148513E-18  1.23840182E-03 -5.49807189E-18  9.44347421E-03 -4.84261925E-18
  9.11386385E-03 -5.77394372E-48  0.00000000E+00  0.00000000E+00  0.00000000E+00
  0.00000000E+00  0.00000000E+00  0.00000000E+00 -3.37711988E-16  0.00000000E+00
  0.00000000E+00  0.00000000E+00  1.00000000E+00  8.18871078E-05  1.88658320E-02
  2.54830710E-03  3.65045848E-02 -2.35742934E-03 -3.71559234E-19 -2.26740352E-03
 -3.05147532E-02 -6.39054622E-18 -3.50874728E-02 -1.66511874E-02 -1.39031568E-17
 -5.69485032E-02  1.51289959E-03  5.57307436E-03  8.78244678E-19  2.89744738E-03
  9.47166941E-19  3.66700195E-02  7.21640539E-02  1.58443476E-17  3.04069836E-02
  1.51328567E-17  3.62836241E-03 -2.01304391E-02 -3.23672240E-18 -1.96965037E-02
 -7.06643567E-18 -8.18052925E-03 -4.57906802E-18 -2.14806471E-17  3.34106111E-17
 -2.71169641E-17  0.00000000E+00  0.00000000E+00  0.00000000E+00 -6.75423976E-16
  0.00000000E+00  4.34852975E-33  1.73531962E-17  4.16912988E-31  0.00000000E+00
  1.00000000E+00  1.75902583E-20  4.05258981E-18  5.47404608E-19  7.84158941E-18
 -5.65581079E-19  5.50987674E-04 -4.87063406E-19 -8.11145350E-18  1.44922347E-02
 -7.53717803E-18 -9.63422311E-18  5.63971227E-02 -1.22331697E-17  3.24987599E-19
  1.33699094E-18 -1.30191424E-03  9.47166941E-19 -1.51185463E-03  7.87712661E-18
  1.95484028E-17 -3.76774244E-02  1.51328567E-17 -4.00402971E-02  7.79412459E-19
 -4.86154227E-18  5.00254301E-03 -7.06643567E-18  1.31995441E-02 -4.67201659E-18
  9.04592755E-03  1.15478874E-47  0.00000000E+00  0.00000000E+00  0.00000000E+00
  0.00000000E+00  0.00000000E+00  0.00000000E+00 -6.75423976E-16  0.00000000E+00
  0.00000000E+00  0.00000000E+00  4.16912988E-31  0.00000000E+00  1.00000000E+00
  2.53011481E-06  5.64688479E-03  2.35480188E-04  5.86220160E-02  2.16648144E-04
  2.32692113E-20 -1.68899014E-04  1.32680493E-02  1.42506202E-18 -1.03437786E-02
  1.44495778E-01  1.55196473E-17 -1.12648989E-01  4.33739898E-05 -5.43420404E-04
 -5.83663629E-20  3.48524895E-04  7.48670103E-20  3.13346526E-03 -3.92582967E-02
 -4.21655862E-18  2.51784689E-02  5.40861417E-18  2.05919582E-03  2.59441940E-03
  2.78655021E-19 -4.46930385E-03 -9.60056001E-19  2.34041092E-03  7.54119308E-19
  3.42261916E-08  3.99449455E-04  2.36500735E-02  4.51545942E-08  4.84985364E-24
  8.61621083E-31  7.44130647E-04  7.99237552E-20  5.24953787E-22 -8.47298985E-07
  4.47775517E-27  4.80935719E-43  1.46756489E-06  3.15249204E-22  1.00000000E+00
  4.66007093E-03  7.12980854E-02  2.49144495E-02  1.96108797E-01  1.66690458E-02
  1.79034789E-18 -1.29951973E-02  9.28641854E-02  9.97412813E-18 -7.23969706E-02
  3.21591284E-01  3.45406861E-17 -2.50712744E-01  1.20506943E-03 -1.50979728E-02
 -1.62160595E-18  9.68314651E-03  2.08004719E-18  9.59289869E-03 -1.20186704E-01
 -1.29087181E-17  7.70822335E-02  1.65581181E-17  9.49845884E-03  1.19672863E-02
  1.28535286E-18 -2.06155715E-02 -4.42845324E-18  1.07956206E-02  3.47852842E-18
  3.99449455E-04  8.71837357E-03  8.12390303E-02  7.51827122E-04  8.07503992E-20
  3.29117189E-19  1.75929730E-02  1.88958280E-18  1.58624374E-18 -1.09533691E-03
  6.62753235E-19  7.11833702E-35  1.89717917E-03  4.07535113E-19  7.06285045E-01
  1.00000000E+00  2.45037008E-02  1.99905118E-01  9.94164475E-02  3.79413944E-01
  2.48149487E-02  2.66526300E-18 -1.93457478E-02  1.08014469E-01  1.16013526E-17
 -8.42081404E-02  3.25510688E-01  3.49616518E-17 -2.53768314E-01  6.13805000E-04
 -7.69018858E-03 -8.25968869E-19  4.93213385E-03  1.05947701E-18  4.46544649E-03
 -5.59463113E-02 -6.00894386E-18  3.58813952E-02  7.70772137E-18  1.67719893E-03
  2.11313435E-03  2.26962340E-19 -3.64021310E-03 -7.81958119E-19  1.90624643E-03
  6.14224290E-19  2.36500735E-02  8.12390303E-02  2.24272333E-01  1.91813825E-02
  2.06018678E-18  1.16039364E-17  9.70879175E-02  1.04277804E-17  1.90904437E-17
 -7.82281628E-03  0.00000000E+00  0.00000000E+00  1.35495152E-02  2.91058605E-18
  3.73527845E-01  7.88878095E-01  1.00000000E+00 -2.18443873E-06 -9.20227133E-03
 -3.80847619E-04 -5.04174038E-02 -3.31567999E-04 -3.86608433E-20  2.80618807E-04
 -1.99409791E-02 -2.50450319E-18  1.81788766E-02 -7.31078794E-02 -1.24609891E-17
  9.04477917E-02 -1.40856852E-04  9.40805611E-04  1.09657700E-19 -5.51976571E-04
 -1.29614756E-19 -1.36521619E-02  5.91789143E-02  7.52509172E-18 -3.09744602E-02
 -8.15307698E-18 -3.20042950E-03 -6.21260246E-03 -7.29551019E-19  8.30720720E-03
  1.99906541E-18 -3.82706767E-03 -1.40170048E-18 -4.51545942E-08 -7.51827122E-04
 -1.91813825E-02 -5.09557995E-08 -5.60989424E-24  0.00000000E+00 -1.46745808E-03
 -1.67046711E-19  0.00000000E+00  1.38184296E-06  0.00000000E+00  0.00000000E+00
 -2.39342221E-06 -5.29646599E-22 -6.57641859E-18  0.00000000E+00 -3.76491072E-16
  1.00000000E+00 -2.34620825E-22 -9.88374936E-19 -4.09051448E-20 -5.41510856E-18
 -3.86608433E-20  2.83840359E-05  3.01400149E-20 -2.50450319E-18  3.37721430E-03
  1.95251208E-18 -1.24609891E-17  4.29102416E-02  9.71459405E-18 -1.51288065E-20
  1.09657700E-19 -8.01631271E-05 -8.13734851E-20  1.02825898E-04 -1.46631785E-18
  7.52509172E-18 -1.08835015E-02 -6.32566792E-18  1.39603562E-02 -3.43743864E-19
 -7.29551019E-19  5.79887096E-04  1.32141055E-18 -1.99789720E-03 -9.16715233E-19
  1.56933851E-03 -4.84985364E-24 -8.07503992E-20 -2.06018678E-18 -5.60989424E-24
  1.27515765E-09  0.00000000E+00 -1.67046711E-19  8.78314123E-05  0.00000000E+00
  1.48417591E-22  0.00000000E+00  0.00000000E+00 -2.88092771E-22  1.44433713E-07
  9.89743905E-32  0.00000000E+00  0.00000000E+00  0.00000000E+00  1.00000000E+00
  1.70298965E-06  7.17409584E-03  2.96909015E-04  3.93054360E-02  2.80618807E-04
  3.01400149E-20 -1.90386542E-04  1.81788766E-02  1.95251208E-18 -1.07950480E-02
  9.04477917E-02  9.71459405E-18 -2.76029071E-02 -2.90345288E-05 -6.93121898E-04
 -7.44451328E-20  5.10484369E-04  1.09657700E-19 -8.20754451E-03 -4.06603421E-02
 -4.36714606E-18  3.50312079E-02  7.52509172E-18  3.91548412E-03  2.13647579E-03
  2.29469339E-19 -6.75250559E-03 -1.45051304E-18  4.20704126E-03  1.35557863E-18
  8.61621083E-31  3.29117189E-19  1.16039364E-17  0.00000000E+00  0.00000000E+00
  1.27515765E-09  0.00000000E+00  0.00000000E+00  8.78314123E-05  0.00000000E+00
  1.44433713E-07  1.55129811E-23  0.00000000E+00  0.00000000E+00  7.82349130E-17
  7.27785642E-16  1.88245536E-16  0.00000000E+00  0.00000000E+00  1.00000000E+00
 -8.63917678E-03 -1.16149490E-01 -4.52391750E-02 -2.17446695E-01 -2.82861424E-02
 -3.82560047E-18  2.77680296E-02 -1.24916312E-01 -1.84565961E-17  1.33966762E-01
 -1.79900030E-01 -3.84977379E-17  2.79434910E-01 -8.73487513E-03  2.97465931E-02
  4.02768109E-18 -1.41055794E-02 -4.09818710E-18 -7.03149507E-02  1.73813117E-01
  2.60578676E-17 -6.73513418E-02 -2.39462271E-17 -6.29754026E-03 -3.55918103E-02
 -4.61281992E-18  3.09320108E-02  9.36655682E-18 -9.56226532E-03 -5.21925279E-18
 -7.44130647E-04 -1.75929730E-02 -9.70879175E-02 -1.46745808E-03 -1.67046711E-19
  0.00000000E+00 -3.62975860E-02 -4.27723204E-18 -3.27771614E-18  2.38391637E-03
  1.35281572E-18  1.54659056E-34 -4.12906427E-03 -9.48034160E-19  1.37327004E-18
  0.00000000E+00  0.00000000E+00  6.14923564E-01  0.00000000E+00  0.00000000E+00
  1.00000000E+00 -9.27895461E-19 -1.24750989E-17 -4.85893809E-18 -2.33549800E-17
 -3.82560047E-18  7.33213590E-03  2.98244025E-18 -1.84565961E-17  4.69239477E-02
  1.43887726E-17 -3.84977379E-17  1.78533411E-01  3.00128579E-17 -9.38173994E-19
  4.02768109E-18 -7.75315809E-03 -3.65132203E-18  9.94503919E-03 -7.55221537E-18
  2.60578676E-17 -6.87988301E-02 -2.61907322E-17  8.82488213E-02 -6.76390722E-19
 -4.61281992E-18  7.35587977E-03  8.76630553E-18 -2.53433672E-02 -7.44143607E-18
  1.99070914E-02 -7.99237552E-20 -1.88958280E-18 -1.04277804E-17 -1.67046711E-19
  8.78314123E-05  0.00000000E+00 -4.27723204E-18  3.52561097E-03 -3.52044877E-34
  2.56045829E-19  1.54659056E-34 -8.71384435E-20 -5.65615167E-19  5.68549726E-04
 -3.79572654E-32  0.00000000E+00  4.50763604E-32  0.00000000E+00  6.14923564E-01
  0.00000000E+00  0.00000000E+00  1.00000000E+00  6.73510702E-03  9.05502071E-02
  3.52684860E-02  1.69521564E-01  2.77680296E-02  2.98244025E-18 -1.43158354E-02
  1.33966762E-01  1.43887726E-17 -5.75166142E-02  2.79434910E-01  3.00128579E-17
 -3.93142003E-02 -6.61915021E-03 -1.92897877E-02 -2.07183010E-18  1.87498756E-02
  4.02768109E-18 -6.43454946E-02 -1.00891588E-01 -1.08363156E-17  1.21305974E-01
  2.60578676E-17  2.29277179E-02 -6.58933885E-03 -7.07731508E-19 -2.76182439E-02
 -5.93270489E-18  2.29743268E-02  7.40271005E-18  5.24953787E-22  1.58624374E-18
  1.90904437E-17  0.00000000E+00  0.00000000E+00  8.78314123E-05  3.27771614E-18
  3.52044877E-34  3.52561097E-03  5.19672254E-20  5.68549726E-04  6.10653913E-20
 -2.64286762E-19 -5.67717256E-35  1.86538629E-17  2.75044754E-16  2.03005880E-16
  0.00000000E+00  0.00000000E+00  6.14923564E-01  0.00000000E+00  0.00000000E+00
  1.00000000E+00  1.01908662E-05  2.34785640E-03  3.17137306E-04  4.54300256E-03
  6.80065934E-04  7.30428500E-20  2.13823158E-04  1.39682238E-02  1.50026465E-18
  8.67934206E-03  4.16517701E-02  4.47363093E-18  4.36817300E-02 -1.68354409E-03
 -1.03933109E-04 -1.11629918E-20  1.51289959E-03  3.24987599E-19 -4.58942482E-02
  8.08327815E-03  8.68188868E-19  3.66700195E-02  7.87712661E-18  7.71832717E-03
 -1.31964161E-02 -1.41736822E-18 -4.09391944E-03 -8.79419270E-19  8.89330736E-03
  2.86557148E-18 -8.47298985E-07 -1.09533691E-03 -7.82281628E-03 -1.38184296E-06
 -1.48417591E-22  0.00000000E+00 -2.38391637E-03 -2.56045829E-19  5.19672254E-20
  1.44884895E-05  3.76745012E-21  4.04645021E-37 -2.47344945E-05 -5.31324355E-21
  0.00000000E+00  0.00000000E+00  0.00000000E+00  0.00000000E+00  0.00000000E+00
  0.00000000E+00 -3.89956214E-16  0.00000000E+00 -3.89956214E-16  1.00000000E+00
 -1.27678470E-04 -2.94156262E-02 -3.97332326E-03 -5.69179892E-02 -4.10525674E-03
 -4.87063406E-19  2.98435041E-03 -5.88767913E-02 -7.53717803E-18  4.02161919E-02
 -6.99297782E-02 -1.22331697E-17  3.23970468E-02 -1.03933109E-04  8.19266217E-03
  9.71967936E-19 -5.57307436E-03 -1.33699094E-18  8.08327815E-03  1.01851317E-01
  1.32039878E-17 -7.21640539E-02 -1.95484028E-17 -1.79110245E-02 -1.44170766E-02
 -1.68148513E-18  3.23028860E-02  7.95329940E-18 -1.77456467E-02 -6.69682188E-18
 -4.47775517E-27 -6.62753235E-19  0.00000000E+00  0.00000000E+00  0.00000000E+00
 -1.44433713E-07  1.35281572E-18  1.54659056E-34 -5.68549726E-04 -3.76745012E-21
 -6.19308584E-06 -6.87514501E-22  7.57912329E-21  1.68466674E-36  5.20070616E-32
  0.00000000E+00  0.00000000E+00  0.00000000E+00  0.00000000E+00  0.00000000E+00
 -3.37711988E-16  0.00000000E+00  6.75423976E-16 -2.40704826E-31  1.00000000E+00
 -1.37133752E-20 -3.15940127E-18 -4.26756937E-19 -6.11330746E-18 -4.87063406E-19
  4.29550297E-04  3.20535773E-19 -7.53717803E-18  1.12981542E-02  4.31944187E-18
 -1.22331697E-17  4.39672282E-02  3.47962236E-18 -1.11629918E-20  9.71967936E-19