Jobname.Temp
SP        R                             cc-pVTZ             
Number of atoms                            I                3
Charge                                     I                0
Multiplicity                               I                1
Number of electrons                        I               10
Number of alpha electrons                  I                5
Number of beta electrons                   I                5
Atomic numbers                             I   N=           3
           8           1           1
Current cartesian coordinates              R   N=           9
  0.00000000E+00  0.00000000E+00  4.20636714E-01 -2.69777073E+00 -3.30381630E-16
 -1.68254686E+00  2.69777073E+00  3.30381630E-16 -1.68254686E+00
Nuclear charges                            R   N=           3
  8.00000000E+00  1.00000000E+00  1.00000000E+00
Number of basis functions                  I               58
Number of contracted shells                I               22
Number of primitive shells                 I               40
Highest angular momentum                   I                3
Largest degree of contraction              I                7
Shell types                                I   N=          22
           0           0           0           0           1           1
           1          -2          -2          -3           0           0
           0           1           1          -2           0           0
           0           1           1          -2
Number of primitives per shell             I   N=          22
           7           7           1           1           3           1
           1           1           1           1           3           1
           1           1           1           1           3           1
           1           1           1           1
Shell to atom map                          I   N=          22
           1           1           1           1           1           1
           1           1           1           1           2           2
           2           2           2           2           3           3
           3           3           3           3
Primitive exponents                        R   N=          40
  1.53300000E+04  2.29900000E+03  5.22400000E+02  1.47300000E+02  4.75500000E+01
  1.67600000E+01  6.20700000E+00  1.53300000E+04  2.29900000E+03  1.47300000E+02
  4.75500000E+01  1.67600000E+01  6.20700000E+00  6.88200000E-01  1.75200000E+00
  2.38400000E-01  3.44600000E+01  7.74900000E+00  2.28000000E+00  7.15600000E-01
  2.14000000E-01  2.31400000E+00  6.45000000E-01  1.42800000E+00  3.38700000E+01
  5.09500000E+00  1.15900000E+00  3.25800000E-01  1.02700000E-01  1.40700000E+00
  3.88000000E-01  1.05700000E+00  3.38700000E+01  5.09500000E+00  1.15900000E+00
  3.25800000E-01  1.02700000E-01  1.40700000E+00  3.88000000E-01  1.05700000E+00
Contraction coefficients                   R   N=          40
  5.19807566E-04  4.02025773E-03  2.07128269E-02  8.10105552E-02  2.35962988E-01
  4.42653444E-01  3.57064420E-01  2.39729119E-06  8.58121279E-06 -1.05276498E-03
 -1.00458896E-02 -6.64857111E-02 -1.70398750E-01  1.07306114E+00  1.00000000E+00
  1.00000000E+00  4.11634896E-02  2.57762836E-01  8.02419274E-01  1.00000000E+00
  1.00000000E+00  1.00000000E+00  1.00000000E+00  1.00000000E+00  2.54948632E-02
  1.90362766E-01  8.52162022E-01  1.00000000E+00  1.00000000E+00  1.00000000E+00
  1.00000000E+00  1.00000000E+00  2.54948632E-02  1.90362766E-01  8.52162022E-01
  1.00000000E+00  1.00000000E+00  1.00000000E+00  1.00000000E+00  1.00000000E+00
Coordinates of each shell                  R   N=          66
  0.00000000E+00  0.00000000E+00  4.20636714E-01  0.00000000E+00  0.00000000E+00
  4.20636714E-01  0.00000000E+00  0.00000000E+00  4.20636714E-01  0.00000000E+00
  0.00000000E+00  4.20636714E-01  0.00000000E+00  0.00000000E+00  4.20636714E-01
  0.00000000E+00  0.00000000E+00  4.20636714E-01  0.00000000E+00  0.00000000E+00
  4.20636714E-01  0.00000000E+00  0.00000000E+00  4.20636714E-01  0.00000000E+00
  0.00000000E+00  4.20636714E-01  0.00000000E+00  0.00000000E+00  4.20636714E-01
 -2.69777073E+00 -3.30381630E-16 -1.68254686E+00 -2.69777073E+00 -3.30381630E-16
 -1.68254686E+00 -2.69777073E+00 -3.30381630E-16 -1.68254686E+00 -2.69777073E+00
 -3.30381630E-16 -1.68254686E+00 -2.69777073E+00 -3.30381630E-16 -1.68254686E+00
 -2.69777073E+00 -3.30381630E-16 -1.68254686E+00  2.69777073E+00  3.30381630E-16
 -1.68254686E+00  2.69777073E+00  3.30381630E-16 -1.68254686E+00  2.69777073E+00
  3.30381630E-16 -1.68254686E+00  2.69777073E+00  3.30381630E-16 -1.68254686E+00
  2.69777073E+00  3.30381630E-16 -1.68254686E+00  2.69777073E+00  3.30381630E-16
 -1.68254686E+00
Overlap Matrix                             R   N=        1711
  1.00000000E+00  1.04712649E-01  1.00000000E+00  5.29767968E-01  7.55463327E-01
  1.00000000E+00  1.47812726E-01  8.29541310E-01  5.23316844E-01  1.00000000E+00
  0.00000000E+00  0.00000000E+00  0.00000000E+00  0.00000000E+00  1.00000000E+00
  0.00000000E+00  0.00000000E+00  0.00000000E+00  0.00000000E+00  0.00000000E+00
  1.00000000E+00 -3.51263391E-17 -5.70086878E-17  4.68743798E-17 -5.84638903E-17
  0.00000000E+00  0.00000000E+00  1.00000000E+00  0.00000000E+00  0.00000000E+00
  0.00000000E+00  0.00000000E+00  6.00183926E-01  0.00000000E+00  0.00000000E+00
  1.00000000E+00  0.00000000E+00  0.00000000E+00  0.00000000E+00  0.00000000E+00
  0.00000000E+00  6.00183926E-01  0.00000000E+00  0.00000000E+00  1.00000000E+00
  0.00000000E+00  1.00750161E-16 -8.11954274E-17  7.56746227E-17  0.00000000E+00
  0.00000000E+00  6.00183926E-01  0.00000000E+00  0.00000000E+00  1.00000000E+00
  0.00000000E+00  0.00000000E+00  0.00000000E+00  0.00000000E+00  2.04173581E-01
  0.00000000E+00  0.00000000E+00  6.50413929E-01  0.00000000E+00  0.00000000E+00
  1.00000000E+00  0.00000000E+00  0.00000000E+00  0.00000000E+00  0.00000000E+00
  0.00000000E+00  2.04173581E-01  0.00000000E+00  0.00000000E+00  6.50413929E-01
  0.00000000E+00  0.00000000E+00  1.00000000E+00 -5.49171115E-18  4.66490051E-17
  2.52492072E-17  0.00000000E+00  0.00000000E+00  0.00000000E+00  2.04173581E-01
  0.00000000E+00  0.00000000E+00  6.50413929E-01  0.00000000E+00  0.00000000E+00
  1.00000000E+00  0.00000000E+00  0.00000000E+00  0.00000000E+00  0.00000000E+00
  0.00000000E+00  0.00000000E+00  6.66444144E-17  0.00000000E+00  0.00000000E+00
  0.00000000E+00  0.00000000E+00  0.00000000E+00  0.00000000E+00  1.00000000E+00
  0.00000000E+00  0.00000000E+00  0.00000000E+00  0.00000000E+00  5.77157559E-17
  0.00000000E+00  0.00000000E+00  0.00000000E+00  0.00000000E+00  0.00000000E+00
  0.00000000E+00  0.00000000E+00  0.00000000E+00  0.00000000E+00  1.00000000E+00
  0.00000000E+00  0.00000000E+00  0.00000000E+00  0.00000000E+00  0.00000000E+00
  5.77157559E-17  0.00000000E+00  0.00000000E+00  0.00000000E+00  0.00000000E+00
  0.00000000E+00  0.00000000E+00  0.00000000E+00  0.00000000E+00  0.00000000E+00
  1.00000000E+00 -5.86034739E-18  5.49634588E-17 -4.65604530E-17 -4.86025116E-19
  0.00000000E+00  0.00000000E+00  4.95030528E-34  0.00000000E+00  0.00000000E+00
  0.00000000E+00  0.00000000E+00  0.00000000E+00  0.00000000E+00  9.91611210E-18
  0.00000000E+00  0.00000000E+00  1.00000000E+00  0.00000000E+00  0.00000000E+00
  0.00000000E+00  0.00000000E+00  0.00000000E+00  0.00000000E+00  0.00000000E+00
  0.00000000E+00  0.00000000E+00  0.00000000E+00  0.00000000E+00  0.00000000E+00
  0.00000000E+00  0.00000000E+00  0.00000000E+00  0.00000000E+00  0.00000000E+00
  1.00000000E+00  0.00000000E+00  0.00000000E+00  0.00000000E+00  0.00000000E+00
  0.00000000E+00  0.00000000E+00 -5.72195718E-17  0.00000000E+00  0.00000000E+00
  0.00000000E+00  0.00000000E+00  0.00000000E+00  0.00000000E+00  5.11638218E-01
  0.00000000E+00  0.00000000E+00 -2.73418426E-17  0.00000000E+00  1.00000000E+00
  0.00000000E+00  0.00000000E+00  0.00000000E+00  0.00000000E+00 -4.95536028E-17
  0.00000000E+00  0.00000000E+00  0.00000000E+00  0.00000000E+00  0.00000000E+00
  0.00000000E+00  0.00000000E+00  0.00000000E+00  0.00000000E+00  5.11638218E-01
  0.00000000E+00  0.00000000E+00  0.00000000E+00  0.00000000E+00  1.00000000E+00
  0.00000000E+00  0.00000000E+00  0.00000000E+00  0.00000000E+00  0.00000000E+00
 -4.95536028E-17  0.00000000E+00  0.00000000E+00  0.00000000E+00  0.00000000E+00
  0.00000000E+00  0.00000000E+00  0.00000000E+00  0.00000000E+00  0.00000000E+00
  5.11638218E-01  0.00000000E+00  0.00000000E+00  0.00000000E+00  0.00000000E+00
  1.00000000E+00 -9.67249879E-19  4.13664842E-18  1.25541576E-17 -3.49841677E-17
  0.00000000E+00  0.00000000E+00 -1.18037085E-33  0.00000000E+00  0.00000000E+00
  0.00000000E+00  0.00000000E+00  0.00000000E+00  0.00000000E+00 -1.32951405E-17
  0.00000000E+00  0.00000000E+00  5.11638218E-01  0.00000000E+00  1.73531962E-17
  0.00000000E+00  0.00000000E+00  1.00000000E+00  0.00000000E+00  0.00000000E+00
  0.00000000E+00  0.00000000E+00  0.00000000E+00  0.00000000E+00  0.00000000E+00
  0.00000000E+00  0.00000000E+00  0.00000000E+00  0.00000000E+00  0.00000000E+00
  0.00000000E+00  0.00000000E+00  0.00000000E+00  0.00000000E+00  0.00000000E+00
  5.11638218E-01  0.00000000E+00  0.00000000E+00  0.00000000E+00  0.00000000E+00
  1.00000000E+00 -7.70371978E-34  4.81482486E-35 -1.23259516E-32  0.00000000E+00
  0.00000000E+00  0.00000000E+00 -1.11022302E-16  0.00000000E+00  0.00000000E+00
 -1.11022302E-16  0.00000000E+00  0.00000000E+00  0.00000000E+00  0.00000000E+00
  0.00000000E+00  0.00000000E+00  0.00000000E+00  0.00000000E+00 -1.35963356E-16
  0.00000000E+00  0.00000000E+00 -1.03359590E-33  0.00000000E+00  1.00000000E+00
  0.00000000E+00  0.00000000E+00  0.00000000E+00  0.00000000E+00  9.48394126E-17
  0.00000000E+00  0.00000000E+00  1.01758373E-16  0.00000000E+00  0.00000000E+00
  3.33931168E-17  0.00000000E+00  0.00000000E+00  0.00000000E+00  0.00000000E+00
  0.00000000E+00  0.00000000E+00  0.00000000E+00  0.00000000E+00 -1.28187482E-16
  0.00000000E+00  0.00000000E+00  0.00000000E+00  0.00000000E+00  1.00000000E+00
  0.00000000E+00  0.00000000E+00  0.00000000E+00  0.00000000E+00  0.00000000E+00
  9.48394126E-17  0.00000000E+00  0.00000000E+00  1.01758373E-16  0.00000000E+00
  0.00000000E+00 -2.21180345E-17  0.00000000E+00  0.00000000E+00  0.00000000E+00
  0.00000000E+00  0.00000000E+00  0.00000000E+00  0.00000000E+00  0.00000000E+00
 -1.28187482E-16  0.00000000E+00  0.00000000E+00  0.00000000E+00  0.00000000E+00
  1.00000000E+00 -4.94555587E-35  9.24029437E-36 -1.36599782E-33  0.00000000E+00
  0.00000000E+00  0.00000000E+00 -2.45618501E-17  0.00000000E+00  0.00000000E+00
  2.15888798E-17  0.00000000E+00  0.00000000E+00 -2.49032210E-17  0.00000000E+00
  0.00000000E+00  0.00000000E+00  0.00000000E+00  0.00000000E+00 -1.26288242E-33
  0.00000000E+00  0.00000000E+00 -1.01341102E-16  0.00000000E+00 -1.52962090E-17
  0.00000000E+00  0.00000000E+00  1.00000000E+00  0.00000000E+00  0.00000000E+00
  0.00000000E+00  0.00000000E+00  0.00000000E+00  0.00000000E+00  0.00000000E+00
  0.00000000E+00  0.00000000E+00  0.00000000E+00  0.00000000E+00  0.00000000E+00
  0.00000000E+00  0.00000000E+00  0.00000000E+00  0.00000000E+00  0.00000000E+00
  0.00000000E+00  0.00000000E+00  0.00000000E+00  0.00000000E+00  0.00000000E+00
 -1.01341102E-16  0.00000000E+00  0.00000000E+00  0.00000000E+00  0.00000000E+00
  1.00000000E+00  0.00000000E+00  0.00000000E+00  0.00000000E+00  0.00000000E+00
 -5.55111512E-17  0.00000000E+00  0.00000000E+00  0.00000000E+00  0.00000000E+00
  0.00000000E+00  1.11022302E-16  0.00000000E+00  0.00000000E+00  0.00000000E+00
  0.00000000E+00  0.00000000E+00  0.00000000E+00  0.00000000E+00  0.00000000E+00
  0.00000000E+00  0.00000000E+00  0.00000000E+00  0.00000000E+00  0.00000000E+00
 -1.94289029E-16  0.00000000E+00  0.00000000E+00  0.00000000E+00  1.00000000E+00
  0.00000000E+00  0.00000000E+00  0.00000000E+00  0.00000000E+00  0.00000000E+00
  4.30575241E-17  0.00000000E+00  0.00000000E+00 -2.12708782E-17  0.00000000E+00
  0.00000000E+00 -9.77121991E-17  0.00000000E+00  0.00000000E+00  0.00000000E+00
  0.00000000E+00  0.00000000E+00  0.00000000E+00  0.00000000E+00  0.00000000E+00
  1.39721174E-33  0.00000000E+00  0.00000000E+00  0.00000000E+00  0.00000000E+00
  2.78565357E-16  0.00000000E+00  0.00000000E+00  0.00000000E+00  1.00000000E+00
  2.53011051E-06  5.64688061E-03  2.35479908E-04  5.86219960E-02 -2.16647876E-04
 -2.65317128E-20 -1.68898805E-04 -1.32680402E-02 -1.62486630E-18 -1.03437715E-02
 -1.44495743E-01 -1.76956250E-17 -1.12648962E-01  4.33739402E-05  5.43419770E-04
  6.65497282E-20  3.48524488E-04  8.53638796E-20  3.13346356E-03  3.92582743E-02
  4.80775200E-18  2.51784545E-02  6.16694274E-18  2.05919402E-03 -2.59441715E-03
 -3.17724466E-19 -4.46929995E-03 -1.09466277E-18 -2.34040887E-03 -8.59852270E-19
  1.00000000E+00  4.66006844E-03  7.12980588E-02  2.49144379E-02  1.96108752E-01
 -1.66690388E-02 -2.04136850E-18 -1.29951920E-02 -9.28641567E-02 -1.13725792E-17
 -7.23969484E-02 -3.21591237E-01 -3.93835679E-17 -2.50712708E-01  1.20506905E-03
  1.50979677E-02  1.84896778E-18  9.68314320E-03  2.37168606E-18  9.59289679E-03
  1.20186677E-01  1.47186230E-17  7.70822162E-02  1.88796979E-17  9.49845659E-03
 -1.19672835E-02 -1.46556955E-18 -2.06155666E-02 -5.04935754E-18 -1.07956180E-02
 -3.96624572E-18  7.06285045E-01  1.00000000E+00  2.45036966E-02  1.99905088E-01
  9.94164310E-02  3.79413898E-01 -2.48149463E-02 -3.03895445E-18 -1.93457460E-02
 -1.08014461E-01 -1.32279563E-17 -8.42081338E-02 -3.25510673E-01 -3.98635604E-17
 -2.53768302E-01  6.13805001E-04  7.69018841E-03  9.41776463E-19  4.93213373E-03
  1.20802436E-18  4.46544657E-03  5.59463110E-02  6.85144707E-18  3.58813949E-02
  8.78840709E-18  1.67719901E-03 -2.11313448E-03 -2.58784338E-19 -3.64021330E-03
 -8.91595113E-19 -1.90624653E-03 -7.00343613E-19  3.73527845E-01  7.88878095E-01
  1.00000000E+00  2.18443454E-06  9.20226476E-03  3.80847141E-04  5.04173899E-02
 -3.31567559E-04 -4.40813517E-20 -2.80618432E-04 -1.99409664E-02 -2.85565320E-18
 -1.81788645E-02 -7.31078730E-02 -1.42081196E-17 -9.04477763E-02  1.40856666E-04
  9.40804427E-04  1.25032451E-19  5.51975883E-04  1.47787623E-19  1.36521536E-02
  5.91788843E-02  8.58016674E-18  3.09744456E-02  9.29620053E-18  3.20042678E-03
 -6.21259676E-03 -8.31839287E-19 -8.30719988E-03 -2.27934873E-18 -3.82706438E-03
 -1.59822898E-18 -8.84905638E-16  7.27785642E-16  3.76491072E-16  1.00000000E+00
  2.67516077E-22  1.12695241E-18  4.66403232E-20  6.17434952E-18 -4.40813517E-20
  2.83839938E-05 -3.43658464E-20 -2.85565320E-18  3.37721157E-03 -2.22626883E-18
 -1.42081196E-17  4.29102281E-02 -1.10766580E-17  1.72499666E-20  1.25032451E-19
 -8.01630137E-05  9.27825955E-20 -1.02825752E-04  1.67190662E-18  8.58016674E-18
 -1.08834941E-02  7.21257436E-18 -1.39603467E-02  3.91939241E-19 -8.31839287E-19
  5.79886485E-04 -1.50668174E-18  1.99789508E-03 -1.04524522E-18  1.56933684E-03
  7.30129134E-34  8.08004376E-32  0.00000000E+00  0.00000000E+00  1.00000000E+00
  1.70298639E-06  7.17409074E-03  2.96908643E-04  3.93054253E-02 -2.80618432E-04
 -3.43658464E-20 -1.90386292E-04 -1.81788645E-02 -2.22626883E-18 -1.07950414E-02
 -9.04477763E-02 -1.10766580E-17 -2.76029088E-02 -2.90344769E-05  6.93121034E-04
  8.48828456E-20  5.10483720E-04  1.25032451E-19 -8.20753820E-03  4.06603225E-02
  4.97945338E-18  3.50311892E-02  8.58016674E-18  3.91548050E-03 -2.13647423E-03
 -2.61642633E-19 -6.75249961E-03 -1.65388541E-18 -4.20703740E-03 -1.54564047E-18
 -3.70794325E-16  3.63892821E-16  1.88245536E-16  0.00000000E+00  0.00000000E+00
  1.00000000E+00  8.63917194E-03  1.16149450E-01  4.52391538E-02  2.17446656E-01
 -2.82861314E-02 -4.36197920E-18 -2.77680178E-02 -1.24916283E-01 -2.10443564E-17
 -1.33966724E-01 -1.79900039E-01 -4.38954327E-17 -2.79434885E-01  8.73487133E-03
  2.97465839E-02  4.59239343E-18  1.41055759E-02  4.67278511E-18  7.03149301E-02
  1.73813093E-01  2.97113887E-17  6.73513413E-02  2.73036809E-17  6.29754155E-03
 -3.55918019E-02 -5.25957375E-18 -3.09320073E-02 -1.06798229E-17 -9.56226596E-03
 -5.95103418E-18  3.80569648E-16  0.00000000E+00  4.06011760E-16  6.14923564E-01
  0.00000000E+00  0.00000000E+00  1.00000000E+00  1.05799343E-18  1.42242052E-17
  5.54019849E-18  2.66295351E-17 -4.36197920E-18  7.33213174E-03 -3.40060142E-18
 -2.10443564E-17  4.69239276E-02 -1.64061920E-17 -4.38954327E-17  1.78533369E-01
 -3.42209038E-17  1.06971322E-18  4.59239343E-18 -7.75315428E-03  4.16326571E-18
 -9.94503429E-03  8.61109541E-18  2.97113887E-17 -6.87988069E-02  2.98628804E-17
 -8.82487912E-02  7.71226410E-19 -5.25957375E-18  7.35587707E-03 -9.99541076E-18
  2.53433577E-02 -8.48478381E-18  1.99070839E-02  3.78048018E-32  0.00000000E+00
  4.50763604E-32  0.00000000E+00  6.14923564E-01  0.00000000E+00  0.00000000E+00
  1.00000000E+00  6.73510326E-03  9.05501760E-02  3.52684695E-02  1.69521534E-01
 -2.77680178E-02 -3.40060142E-18 -1.43158305E-02 -1.33966724E-01 -1.64061920E-17
 -5.75166051E-02 -2.79434885E-01 -3.42209038E-17 -3.93142234E-02 -6.61914657E-03
  1.92897825E-02  2.36231704E-18  1.87498691E-02  4.59239343E-18 -6.43454703E-02
  1.00891582E-01  1.23556552E-17  1.21305950E-01  2.97113887E-17  2.29277123E-02
  6.58933253E-03  8.06960499E-19 -2.76182401E-02 -6.76451786E-18 -2.29743216E-02
 -8.44062881E-18 -2.00271329E-17  2.75044754E-16  0.00000000E+00  0.00000000E+00
  0.00000000E+00  6.14923564E-01  0.00000000E+00  0.00000000E+00  1.00000000E+00
  1.01908519E-05  2.34785514E-03  3.17137004E-04  4.54300183E-03 -6.80065205E-04
 -8.32839677E-20  2.13822862E-04 -1.39682157E-02 -1.71061306E-18  8.67933566E-03
 -4.16517621E-02 -5.10086971E-18  4.36817188E-02 -1.68354227E-03  1.03933141E-04
  1.27281388E-20  1.51289803E-03  3.70553146E-19 -4.58942247E-02 -8.08327150E-03
 -9.89915257E-19  3.66700013E-02  8.98155994E-18  7.71832155E-03  1.31964053E-02
  1.61609355E-18 -4.09391680E-03 -1.00272042E-18 -8.89330045E-03 -3.26734558E-18
  0.00000000E+00  0.00000000E+00  0.00000000E+00  0.00000000E+00  0.00000000E+00
  0.00000000E+00  0.00000000E+00  0.00000000E+00 -3.89956214E-16  1.00000000E+00
  1.27678287E-04  2.94156097E-02  3.97331939E-03  5.69179787E-02 -4.10525262E-03
 -5.55353127E-19 -2.98434746E-03 -5.88767630E-02 -8.59394788E-18 -4.02161737E-02
 -6.99297785E-02 -1.39483592E-17 -3.23970525E-02  1.03933141E-04  8.19265480E-03
  1.10824480E-18  5.57306928E-03  1.52444663E-18 -8.08327150E-03  1.01851286E-01
  1.50552903E-17  7.21640310E-02  2.22892412E-17  1.79110130E-02 -1.44170690E-02
 -1.91724214E-18 -3.23028668E-02 -9.06841164E-18 -1.77456361E-02 -7.63576645E-18
  0.00000000E+00  0.00000000E+00  0.00000000E+00  0.00000000E+00  0.00000000E+00
  0.00000000E+00 -3.37711988E-16  0.00000000E+00  0.00000000E+00  0.00000000E+00
  1.00000000E+00  1.56360805E-20  3.60237323E-18  4.86591287E-19  6.97044205E-18
 -5.55353127E-19  4.29549799E-04 -3.65477157E-19 -8.59394788E-18  1.12981469E-02
 -4.92506084E-18 -1.39483592E-17  4.39672182E-02 -3.96749466E-18  1.27281388E-20
  1.10824480E-18 -8.56850763E-04  1.00138082E-18 -1.30191282E-03 -9.89915257E-19
  1.50552903E-17 -2.10844881E-02  1.80658475E-17 -3.76774042E-02  2.19346648E-18
 -1.91724214E-18  1.23840114E-03 -6.26894254E-18  9.44346685E-03 -5.52159017E-18
  9.11385642E-03  0.00000000E+00  0.00000000E+00  0.00000000E+00  0.00000000E+00
  0.00000000E+00  0.00000000E+00  0.00000000E+00 -3.37711988E-16  0.00000000E+00
  0.00000000E+00  0.00000000E+00  1.00000000E+00  8.18869903E-05  1.88658214E-02
  2.54830461E-03  3.65045780E-02 -2.35742701E-03 -4.23654446E-19 -2.26740121E-03
 -3.05147397E-02 -7.28654927E-18 -3.50874549E-02 -1.66511941E-02 -1.58524911E-17
 -5.69484983E-02  1.51289803E-03  5.57306928E-03  1.00138082E-18  2.89744483E-03
  1.07996650E-18  3.66700013E-02  7.21640310E-02  1.80658475E-17  3.04069761E-02
  1.72546005E-17  3.62836158E-03 -2.01304256E-02 -3.69053477E-18 -1.96964921E-02
 -8.05720252E-18 -8.18052465E-03 -5.22108752E-18 -2.14806471E-17  3.34106111E-17
 -2.71169641E-17  0.00000000E+00  0.00000000E+00  0.00000000E+00  0.00000000E+00
  0.00000000E+00  4.34852975E-33  1.73531962E-17  0.00000000E+00  0.00000000E+00
  1.00000000E+00  2.00565281E-20  4.62079355E-18  6.24154616E-19  8.94104292E-18
 -6.44879539E-19  5.50987033E-04 -5.55353127E-19 -9.24874138E-18  1.44922252E-02
 -8.59394788E-18 -1.09850203E-17  5.63971097E-02 -1.39483592E-17  3.70553146E-19
  1.52444663E-18 -1.30191282E-03  1.07996650E-18 -1.51185301E-03  8.98155994E-18
  2.22892412E-17 -3.76774042E-02  1.72546005E-17 -4.00402767E-02  8.88692278E-19
 -5.54316657E-18  5.00253885E-03 -8.05720252E-18  1.31995336E-02 -5.32706795E-18
  9.04592053E-03  0.00000000E+00  0.00000000E+00  0.00000000E+00  0.00000000E+00
  0.00000000E+00  0.00000000E+00  0.00000000E+00  0.00000000E+00  0.00000000E+00
  0.00000000E+00  0.00000000E+00  0.00000000E+00  0.00000000E+00  1.00000000E+00
  2.53011051E-06  5.64688061E-03  2.35479908E-04  5.86219960E-02  2.16647876E-04
  2.65317128E-20 -1.68898805E-04  1.32680402E-02  1.62486630E-18 -1.03437715E-02
  1.44495743E-01  1.76956250E-17 -1.12648962E-01  4.33739402E-05 -5.43419770E-04
 -6.65497282E-20  3.48524488E-04  8.53638796E-20  3.13346356E-03 -3.92582743E-02
 -4.80775200E-18  2.51784545E-02  6.16694274E-18  2.05919402E-03  2.59441715E-03
  3.17724466E-19 -4.46929995E-03 -1.09466277E-18  2.34040887E-03  8.59852270E-19
  3.42261087E-08  3.99449028E-04  2.36500641E-02  4.51544774E-08  5.52982862E-24
 -4.11413917E-24  7.44129792E-04  9.11296169E-20 -5.44352169E-22 -8.47297148E-07
  0.00000000E+00  0.00000000E+00  1.46756171E-06  3.59448950E-22  1.00000000E+00
  4.66006844E-03  7.12980588E-02  2.49144379E-02  1.96108752E-01  1.66690388E-02
  2.04136850E-18 -1.29951920E-02  9.28641567E-02  1.13725792E-17 -7.23969484E-02
  3.21591237E-01  3.93835679E-17 -2.50712708E-01  1.20506905E-03 -1.50979677E-02
 -1.84896778E-18  9.68314320E-03  2.37168606E-18  9.59289679E-03 -1.20186677E-01
 -1.47186230E-17  7.70822162E-02  1.88796979E-17  9.49845659E-03  1.19672835E-02
  1.46556955E-18 -2.06155666E-02 -5.04935754E-18  1.07956180E-02  3.96624572E-18
  3.99449028E-04  8.71836764E-03  8.12390038E-02  7.51826344E-04  9.20721726E-20
  1.64558413E-19  1.75929613E-02  2.15451637E-18  1.58624257E-18 -1.09533592E-03
  0.00000000E+00  0.00000000E+00  1.89717747E-03  4.64674463E-19  7.06285045E-01
  1.00000000E+00  2.45036966E-02  1.99905088E-01  9.94164310E-02  3.79413898E-01
  2.48149463E-02  3.03895445E-18 -1.93457460E-02  1.08014461E-01  1.32279563E-17
 -8.42081338E-02  3.25510673E-01  3.98635604E-17 -2.53768302E-01  6.13805001E-04
 -7.69018841E-03 -9.41776463E-19  4.93213373E-03  1.20802436E-18  4.46544657E-03
 -5.59463110E-02 -6.85144707E-18  3.58813949E-02  8.78840709E-18  1.67719901E-03
  2.11313448E-03  2.58784338E-19 -3.64021330E-03 -8.91595113E-19  1.90624653E-03
  7.00343613E-19  2.36500641E-02  8.12390038E-02  2.24272285E-01  1.91813762E-02
  2.34904110E-18  1.16039317E-17  9.70878915E-02  1.18898376E-17  0.00000000E+00
 -7.82281434E-03  0.00000000E+00  0.00000000E+00  1.35495119E-02  3.31867327E-18
  3.73527845E-01  7.88878095E-01  1.00000000E+00 -2.18443454E-06 -9.20226476E-03
 -3.80847141E-04 -5.04173899E-02 -3.31567559E-04 -4.40813517E-20  2.80618432E-04
 -1.99409664E-02 -2.85565320E-18  1.81788645E-02 -7.31078730E-02 -1.42081196E-17
  9.04477763E-02 -1.40856666E-04  9.40804427E-04  1.25032451E-19 -5.51975883E-04
 -1.47787623E-19 -1.36521536E-02  5.91788843E-02  8.58016674E-18 -3.09744456E-02
 -9.29620053E-18 -3.20042678E-03 -6.21259676E-03 -8.31839287E-19  8.30719988E-03
  2.27934873E-18 -3.82706438E-03 -1.59822898E-18 -4.51544774E-08 -7.51826344E-04
 -1.91813762E-02 -5.09556572E-08 -6.39642956E-24 -4.29894567E-24 -1.46745644E-03
 -1.90467816E-19  0.00000000E+00  1.38183978E-06  0.00000000E+00  0.00000000E+00
 -2.39341671E-06 -6.03906007E-22  8.84905638E-16 -7.27785642E-16 -3.76491072E-16
  1.00000000E+00 -2.67516077E-22 -1.12695241E-18 -4.66403232E-20 -6.17434952E-18
 -4.40813517E-20  2.83839938E-05  3.43658464E-20 -2.85565320E-18  3.37721157E-03
  2.22626883E-18 -1.42081196E-17  4.29102281E-02  1.10766580E-17 -1.72499666E-20
  1.25032451E-19 -8.01630137E-05 -9.27825955E-20  1.02825752E-04 -1.67190662E-18
  8.58016674E-18 -1.08834941E-02 -7.21257436E-18  1.39603467E-02 -3.91939241E-19
 -8.31839287E-19  5.79886485E-04  1.50668174E-18 -1.99789508E-03 -1.04524522E-18
  1.56933684E-03 -5.52982862E-24 -9.20721726E-20 -2.34904110E-18 -6.39642956E-24
  1.27515390E-09 -5.26469005E-40 -1.90467816E-19  8.78313006E-05  0.00000000E+00
  1.69226566E-22  0.00000000E+00  0.00000000E+00 -3.28484981E-22  1.44433359E-07
 -7.30129134E-34 -8.08004376E-32  0.00000000E+00  0.00000000E+00  1.00000000E+00
  1.70298639E-06  7.17409074E-03  2.96908643E-04  3.93054253E-02  2.80618432E-04
  3.43658464E-20 -1.90386292E-04  1.81788645E-02  2.22626883E-18 -1.07950414E-02
  9.04477763E-02  1.10766580E-17 -2.76029088E-02 -2.90344769E-05 -6.93121034E-04
 -8.48828456E-20  5.10483720E-04  1.25032451E-19 -8.20753820E-03 -4.06603225E-02
 -4.97945338E-18  3.50311892E-02  8.58016674E-18  3.91548050E-03  2.13647423E-03
  2.61642633E-19 -6.75249961E-03 -1.65388541E-18  4.20703740E-03  1.54564047E-18
 -4.11413917E-24  1.64558413E-19  1.16039317E-17  4.29894567E-24  5.26469005E-40
  1.27515390E-09  0.00000000E+00  0.00000000E+00  8.78313006E-05  0.00000000E+00
  1.44433359E-07  1.76879850E-23  0.00000000E+00  0.00000000E+00 -3.70794325E-16
  3.63892821E-16  1.88245536E-16  0.00000000E+00  0.00000000E+00  1.00000000E+00
 -8.63917194E-03 -1.16149450E-01 -4.52391538E-02 -2.17446656E-01 -2.82861314E-02
 -4.36197920E-18  2.77680178E-02 -1.24916283E-01 -2.10443564E-17  1.33966724E-01
 -1.79900039E-01 -4.38954327E-17  2.79434885E-01 -8.73487133E-03  2.97465839E-02
  4.59239343E-18 -1.41055759E-02 -4.67278511E-18 -7.03149301E-02  1.73813093E-01
  2.97113887E-17 -6.73513413E-02 -2.73036809E-17 -6.29754155E-03 -3.55918019E-02
 -5.25957375E-18  3.09320073E-02  1.06798229E-17 -9.56226596E-03 -5.95103418E-18
 -7.44129792E-04 -1.75929613E-02 -9.70878915E-02 -1.46745644E-03 -1.90467816E-19
  0.00000000E+00 -3.62975623E-02 -4.87693182E-18  0.00000000E+00  2.38391410E-03
  1.35281432E-18  1.76343341E-34 -4.12906034E-03 -1.08095529E-18 -3.80569648E-16
  0.00000000E+00 -4.06011760E-16  6.14923564E-01  0.00000000E+00  0.00000000E+00
  1.00000000E+00 -1.05799343E-18 -1.42242052E-17 -5.54019849E-18 -2.66295351E-17
 -4.36197920E-18  7.33213174E-03  3.40060142E-18 -2.10443564E-17  4.69239276E-02
  1.64061920E-17 -4.38954327E-17  1.78533369E-01  3.42209038E-17 -1.06971322E-18
  4.59239343E-18 -7.75315428E-03 -4.16326571E-18  9.94503429E-03 -8.61109541E-18
  2.97113887E-17 -6.87988069E-02 -2.98628804E-17  8.82487912E-02 -7.71226410E-19
 -5.25957375E-18  7.35587707E-03  9.99541076E-18 -2.53433577E-02 -8.48478381E-18
  1.99070839E-02 -9.11296169E-20 -2.15451637E-18 -1.18898376E-17 -1.90467816E-19
  8.78313006E-05  0.00000000E+00 -4.87693182E-18  3.52560811E-03  0.00000000E+00
  2.91945277E-19  1.76343341E-34 -8.71383401E-20 -6.44918418E-19  5.68549092E-04
 -3.78048018E-32  0.00000000E+00 -4.50763604E-32  0.00000000E+00  6.14923564E-01
  0.00000000E+00  0.00000000E+00  1.00000000E+00  6.73510326E-03  9.05501760E-02
  3.52684695E-02  1.69521534E-01  2.77680178E-02  3.40060142E-18 -1.43158305E-02
  1.33966724E-01  1.64061920E-17 -5.75166051E-02  2.79434885E-01  3.42209038E-17
 -3.93142234E-02 -6.61914657E-03 -1.92897825E-02 -2.36231704E-18  1.87498691E-02
  4.59239343E-18 -6.43454703E-02 -1.00891582E-01 -1.23556552E-17  1.21305950E-01
  2.97113887E-17  2.29277123E-02 -6.58933253E-03 -8.06960499E-19 -2.76182401E-02
 -6.76451786E-18  2.29743216E-02  8.44062881E-18 -5.44352169E-22  1.58624257E-18
  0.00000000E+00  0.00000000E+00  0.00000000E+00  8.78313006E-05  0.00000000E+00
  0.00000000E+00  3.52560811E-03  5.19671856E-20  5.68549092E-04  6.96271826E-20
 -2.64286486E-19 -6.47315198E-35 -2.00271329E-17  2.75044754E-16  0.00000000E+00
  0.00000000E+00  0.00000000E+00  6.14923564E-01  0.00000000E+00  0.00000000E+00
  1.00000000E+00  1.01908519E-05  2.34785514E-03  3.17137004E-04  4.54300183E-03
  6.80065205E-04  8.32839677E-20  2.13822862E-04  1.39682157E-02  1.71061306E-18
  8.67933566E-03  4.16517621E-02  5.10086971E-18  4.36817188E-02 -1.68354227E-03
 -1.03933141E-04 -1.27281388E-20  1.51289803E-03  3.70553146E-19 -4.58942247E-02
  8.08327150E-03  9.89915257E-19  3.66700013E-02  8.98155994E-18  7.71832155E-03
 -1.31964053E-02 -1.61609355E-18 -4.09391680E-03 -1.00272042E-18  8.89330045E-03
  3.26734558E-18 -8.47297148E-07 -1.09533592E-03 -7.82281434E-03 -1.38183978E-06
 -1.69226566E-22  0.00000000E+00 -2.38391410E-03 -2.91945277E-19  5.19671856E-20
  1.44884619E-05  3.76744274E-21  4.61378669E-37 -2.47344474E-05 -6.05819238E-21
  0.00000000E+00  0.00000000E+00  0.00000000E+00  0.00000000E+00  0.00000000E+00
  0.00000000E+00  0.00000000E+00  0.00000000E+00 -3.89956214E-16  1.00000000E+00
 -1.27678287E-04 -2.94156097E-02 -3.97331939E-03 -5.69179787E-02 -4.10525262E-03
 -5.55353127E-19  2.98434746E-03 -5.88767630E-02 -8.59394788E-18  4.02161737E-02
 -6.99297785E-02 -1.39483592E-17  3.23970525E-02 -1.03933141E-04  8.19265480E-03
  1.10824480E-18 -5.57306928E-03 -1.52444663E-18  8.08327150E-03  1.01851286E-01
  1.50552903E-17 -7.21640310E-02 -2.22892412E-17 -1.79110130E-02 -1.44170690E-02
 -1.91724214E-18  3.23028668E-02  9.06841164E-18 -1.77456361E-02 -7.63576645E-18
  0.00000000E+00  0.00000000E+00  0.00000000E+00  0.00000000E+00  0.00000000E+00
 -1.44433359E-07  1.35281432E-18  1.76343341E-34 -5.68549092E-04 -3.76744274E-21
 -6.19307307E-06 -7.83908056E-22  7.57910825E-21  1.92086702E-36  0.00000000E+00
  0.00000000E+00  0.00000000E+00  0.00000000E+00  0.00000000E+00  0.00000000E+00
 -3.37711988E-16  0.00000000E+00  0.00000000E+00  0.00000000E+00  1.00000000E+00
 -1.56360805E-20 -3.60237323E-18 -4.86591287E-19 -6.97044205E-18 -5.55353127E-19
  4.29549799E-04  3.65477157E-19 -8.59394788E-18  1.12981469E-02  4.92506084E-18
 -1.39483592E-17  4.39672182E-02  3.96749466E-18 -1.27281388E-20  1.10824480E-18